 TITLE = "vortex flow"
 VARIABLES = "x", "y", "z", "Density", "Velx", "Vely", "Pressure"
 ZONE STRANDID=1, SOLUTIONTIME=   2.0000000000000002E-005 , I=          20 , J=          20 K=          20  DATAPACKING=POINT
   -0.95000000000000E+01   -0.95000000000000E+01    0.25000000000000E+00    0.00000000000000E+00    0.00000000000000E+00    0.00000000000000E+00    0.00000000000000E+00
   -0.85000000000000E+01   -0.95000000000000E+01    0.25000000000000E+00    0.11774120919629E+01    0.34113767992104E-02    0.34113767992104E-02   -0.10200016629639E+01
   -0.75000000000000E+01   -0.95000000000000E+01    0.25000000000000E+00    0.11774120919629E+01    0.34113767992104E-02    0.34113767992104E-02   -0.10200016629639E+01
   -0.65000000000000E+01   -0.95000000000000E+01    0.25000000000000E+00    0.11774120919629E+01    0.34113767992104E-02    0.34113767992104E-02   -0.10200016629639E+01
   -0.55000000000000E+01   -0.95000000000000E+01    0.25000000000000E+00    0.11774120919629E+01    0.34113767992104E-02    0.34113767992104E-02   -0.10200016629639E+01
   -0.45000000000000E+01   -0.95000000000000E+01    0.25000000000000E+00    0.11774120919629E+01    0.34113767992104E-02    0.34113767992104E-02   -0.10200016629639E+01
   -0.35000000000000E+01   -0.95000000000000E+01    0.25000000000000E+00    0.11774120919629E+01    0.34113767992104E-02    0.34113767992104E-02   -0.10200016629639E+01
   -0.25000000000000E+01   -0.95000000000000E+01    0.25000000000000E+00    0.11774120919629E+01    0.34113767992104E-02    0.34113767992104E-02   -0.10200016629639E+01
   -0.15000000000000E+01   -0.95000000000000E+01    0.25000000000000E+00    0.11774120919629E+01    0.34113767992104E-02    0.34113767992104E-02   -0.10200016629639E+01
   -0.50000000000000E+00   -0.95000000000000E+01    0.25000000000000E+00    0.11774120919629E+01    0.34113767992104E-02    0.34113767992104E-02   -0.10200016629639E+01
    0.50000000000000E+00   -0.95000000000000E+01    0.25000000000000E+00    0.11774120919629E+01    0.34113767992104E-02    0.34113767992104E-02   -0.10200016629639E+01
    0.15000000000000E+01   -0.95000000000000E+01    0.25000000000000E+00    0.11774120919629E+01    0.34113767992104E-02    0.34113767992104E-02   -0.10200016629639E+01
    0.25000000000000E+01   -0.95000000000000E+01    0.25000000000000E+00    0.11774120919629E+01    0.34113767992104E-02    0.34113767992104E-02   -0.10200016629639E+01
    0.35000000000000E+01   -0.95000000000000E+01    0.25000000000000E+00    0.11774120919629E+01    0.34113767992104E-02    0.34113767992104E-02   -0.10200016629639E+01
    0.45000000000000E+01   -0.95000000000000E+01    0.25000000000000E+00    0.11774120919629E+01    0.34113767992104E-02    0.34113767992104E-02   -0.10200016629639E+01
    0.55000000000000E+01   -0.95000000000000E+01    0.25000000000000E+00    0.11774120919629E+01    0.34113767992104E-02    0.34113767992104E-02   -0.10200016629639E+01
    0.65000000000000E+01   -0.95000000000000E+01    0.25000000000000E+00    0.11774120919629E+01    0.34113767992104E-02    0.34113767992104E-02   -0.10200016629639E+01
    0.75000000000000E+01   -0.95000000000000E+01    0.25000000000000E+00    0.11774120919629E+01    0.34113767992104E-02    0.34113767992104E-02   -0.10200016629639E+01
    0.85000000000000E+01   -0.95000000000000E+01    0.25000000000000E+00    0.11774120919629E+01    0.34113767992104E-02    0.34113767992104E-02   -0.10200016629639E+01
    0.95000000000000E+01   -0.95000000000000E+01    0.25000000000000E+00    0.11774120919629E+01    0.34113767992104E-02    0.34113767992104E-02   -0.10200016629639E+01
   -0.95000000000000E+01   -0.85000000000000E+01    0.25000000000000E+00    0.11774120919629E+01    0.34113767992104E-02    0.34113767992104E-02   -0.10200016629639E+01
   -0.85000000000000E+01   -0.85000000000000E+01    0.25000000000000E+00    0.11774120919629E+01    0.34113767992104E-02    0.34113767992104E-02   -0.10200016629639E+01
   -0.75000000000000E+01   -0.85000000000000E+01    0.25000000000000E+00    0.11774120919629E+01    0.34113767992104E-02    0.34113767992104E-02   -0.10200016629639E+01
   -0.65000000000000E+01   -0.85000000000000E+01    0.25000000000000E+00    0.11774120919629E+01    0.34113767992104E-02    0.34113767992104E-02   -0.10200016629639E+01
   -0.55000000000000E+01   -0.85000000000000E+01    0.25000000000000E+00    0.11774120919629E+01    0.34113767992104E-02    0.34113767992104E-02   -0.10200016629639E+01
   -0.45000000000000E+01   -0.85000000000000E+01    0.25000000000000E+00    0.11774120919629E+01    0.34113767992104E-02    0.34113767992104E-02   -0.10200016629639E+01
   -0.35000000000000E+01   -0.85000000000000E+01    0.25000000000000E+00    0.11774120919629E+01    0.34113767992104E-02    0.34113767992104E-02   -0.10200016629639E+01
   -0.25000000000000E+01   -0.85000000000000E+01    0.25000000000000E+00    0.11774120919629E+01    0.34113767992104E-02    0.34113767992104E-02   -0.10200016629639E+01
   -0.15000000000000E+01   -0.85000000000000E+01    0.25000000000000E+00    0.11774120919629E+01    0.34113767992104E-02    0.34113767992104E-02   -0.10200016629639E+01
   -0.50000000000000E+00   -0.85000000000000E+01    0.25000000000000E+00    0.11774120919629E+01    0.34113767992104E-02    0.34113767992104E-02   -0.10200016629639E+01
    0.50000000000000E+00   -0.85000000000000E+01    0.25000000000000E+00    0.11774120919629E+01    0.34113767992104E-02    0.34113767992104E-02   -0.10200016629639E+01
    0.15000000000000E+01   -0.85000000000000E+01    0.25000000000000E+00    0.11774120919629E+01    0.34113767992104E-02    0.34113767992104E-02   -0.10200016629639E+01
    0.25000000000000E+01   -0.85000000000000E+01    0.25000000000000E+00    0.11774120919629E+01    0.34113767992104E-02    0.34113767992104E-02   -0.10200016629639E+01
    0.35000000000000E+01   -0.85000000000000E+01    0.25000000000000E+00    0.11774120919629E+01    0.34113767992104E-02    0.34113767992104E-02   -0.10200016629639E+01
    0.45000000000000E+01   -0.85000000000000E+01    0.25000000000000E+00    0.11774120919629E+01    0.34113767992104E-02    0.34113767992104E-02   -0.10200016629639E+01
    0.55000000000000E+01   -0.85000000000000E+01    0.25000000000000E+00    0.11774120919629E+01    0.34113767992104E-02    0.34113767992104E-02   -0.10200016629639E+01
    0.65000000000000E+01   -0.85000000000000E+01    0.25000000000000E+00    0.11774120919629E+01    0.34113767992104E-02    0.34113767992104E-02   -0.10200016629639E+01
    0.75000000000000E+01   -0.85000000000000E+01    0.25000000000000E+00    0.11774120919629E+01    0.34113767992104E-02    0.34113767992104E-02   -0.10200016629639E+01
    0.85000000000000E+01   -0.85000000000000E+01    0.25000000000000E+00    0.11774120919629E+01    0.34113767992104E-02    0.34113767992104E-02   -0.10200016629639E+01
    0.95000000000000E+01   -0.85000000000000E+01    0.25000000000000E+00    0.11774120919629E+01    0.34113767992104E-02    0.34113767992104E-02   -0.10200016629639E+01
   -0.95000000000000E+01   -0.75000000000000E+01    0.25000000000000E+00    0.11774120919629E+01    0.34113767992104E-02    0.34113767992104E-02   -0.10200016629639E+01
   -0.85000000000000E+01   -0.75000000000000E+01    0.25000000000000E+00    0.11774120919629E+01    0.34113767992104E-02    0.34113767992104E-02   -0.10200016629639E+01
   -0.75000000000000E+01   -0.75000000000000E+01    0.25000000000000E+00    0.11774120919629E+01    0.34113767992104E-02    0.34113767992104E-02   -0.10200016629639E+01
   -0.65000000000000E+01   -0.75000000000000E+01    0.25000000000000E+00    0.11774120919629E+01    0.34113767992104E-02    0.34113767992104E-02   -0.10200016629639E+01
   -0.55000000000000E+01   -0.75000000000000E+01    0.25000000000000E+00    0.11774120919629E+01    0.34113767992104E-02    0.34113767992104E-02   -0.10200016629639E+01
   -0.45000000000000E+01   -0.75000000000000E+01    0.25000000000000E+00    0.11774120919629E+01    0.34113767992104E-02    0.34113767992104E-02   -0.10200016629639E+01
   -0.35000000000000E+01   -0.75000000000000E+01    0.25000000000000E+00    0.11774120919629E+01    0.34113767992104E-02    0.34113767992104E-02   -0.10200016629639E+01
   -0.25000000000000E+01   -0.75000000000000E+01    0.25000000000000E+00    0.11774120919629E+01    0.34113767992104E-02    0.34113767992104E-02   -0.10200016629639E+01
   -0.15000000000000E+01   -0.75000000000000E+01    0.25000000000000E+00    0.11774120919629E+01    0.34113767992104E-02    0.34113767992104E-02   -0.10200016629639E+01
   -0.50000000000000E+00   -0.75000000000000E+01    0.25000000000000E+00    0.11774120919629E+01    0.34113767992104E-02    0.34113767992104E-02   -0.10200016629639E+01
    0.50000000000000E+00   -0.75000000000000E+01    0.25000000000000E+00    0.11774120919629E+01    0.34113767992104E-02    0.34113767992104E-02   -0.10200016629639E+01
    0.15000000000000E+01   -0.75000000000000E+01    0.25000000000000E+00    0.11774120919629E+01    0.34113767992104E-02    0.34113767992104E-02   -0.10200016629639E+01
    0.25000000000000E+01   -0.75000000000000E+01    0.25000000000000E+00    0.11774120919629E+01    0.34113767992104E-02    0.34113767992104E-02   -0.10200016629639E+01
    0.35000000000000E+01   -0.75000000000000E+01    0.25000000000000E+00    0.11774120919629E+01    0.34113767992104E-02    0.34113767992104E-02   -0.10200016629639E+01
    0.45000000000000E+01   -0.75000000000000E+01    0.25000000000000E+00    0.11774120919629E+01    0.34113767992104E-02    0.34113767992104E-02   -0.10200016629639E+01
    0.55000000000000E+01   -0.75000000000000E+01    0.25000000000000E+00    0.11774120919629E+01    0.34113767992104E-02    0.34113767992104E-02   -0.10200016629639E+01
    0.65000000000000E+01   -0.75000000000000E+01    0.25000000000000E+00    0.11774120919629E+01    0.34113767992104E-02    0.34113767992104E-02   -0.10200016629639E+01
    0.75000000000000E+01   -0.75000000000000E+01    0.25000000000000E+00    0.11774120919629E+01    0.34113767992104E-02    0.34113767992104E-02   -0.10200016629639E+01
    0.85000000000000E+01   -0.75000000000000E+01    0.25000000000000E+00    0.11774120919629E+01    0.34113767992104E-02    0.34113767992104E-02   -0.10200016629639E+01
    0.95000000000000E+01   -0.75000000000000E+01    0.25000000000000E+00    0.11774120919629E+01    0.34113767992104E-02    0.34113767992104E-02   -0.10200016629639E+01
   -0.95000000000000E+01   -0.65000000000000E+01    0.25000000000000E+00    0.11770736287105E+01    0.34103994854172E-02    0.34103994854172E-02   -0.10197094461397E+01
   -0.85000000000000E+01   -0.65000000000000E+01    0.25000000000000E+00    0.11770736287105E+01    0.34103994854172E-02    0.34103994854172E-02   -0.10197094461397E+01
   -0.75000000000000E+01   -0.65000000000000E+01    0.25000000000000E+00    0.11770736287105E+01    0.34103994854172E-02    0.34103994854172E-02   -0.10197094461397E+01
   -0.65000000000000E+01   -0.65000000000000E+01    0.25000000000000E+00    0.11770736287105E+01    0.34103994854172E-02    0.34103994854172E-02   -0.10197094461397E+01
   -0.55000000000000E+01   -0.65000000000000E+01    0.25000000000000E+00    0.11770736287105E+01    0.34103994854172E-02    0.34103994854172E-02   -0.10197094461397E+01
   -0.45000000000000E+01   -0.65000000000000E+01    0.25000000000000E+00    0.11770736287105E+01    0.34103994854172E-02    0.34103994854172E-02   -0.10197094461397E+01
   -0.35000000000000E+01   -0.65000000000000E+01    0.25000000000000E+00    0.11770736287105E+01    0.34103994854172E-02    0.34103994854172E-02   -0.10197094461397E+01
   -0.25000000000000E+01   -0.65000000000000E+01    0.25000000000000E+00    0.11770736287105E+01    0.34103994854172E-02    0.34103994854172E-02   -0.10197094461397E+01
   -0.15000000000000E+01   -0.65000000000000E+01    0.25000000000000E+00    0.11770736287105E+01    0.34103994854172E-02    0.34103994854172E-02   -0.10197094461397E+01
   -0.50000000000000E+00   -0.65000000000000E+01    0.25000000000000E+00    0.11770736287105E+01    0.34103994854172E-02    0.34103994854172E-02   -0.10197094461397E+01
    0.50000000000000E+00   -0.65000000000000E+01    0.25000000000000E+00    0.11770736287105E+01    0.34103994854172E-02    0.34103994854172E-02   -0.10197094461397E+01
    0.15000000000000E+01   -0.65000000000000E+01    0.25000000000000E+00    0.11770736287105E+01    0.34103994854172E-02    0.34103994854172E-02   -0.10197094461397E+01
    0.25000000000000E+01   -0.65000000000000E+01    0.25000000000000E+00    0.11770736287105E+01    0.34103994854172E-02    0.34103994854172E-02   -0.10197094461397E+01
    0.35000000000000E+01   -0.65000000000000E+01    0.25000000000000E+00    0.11770736287105E+01    0.34103994854172E-02    0.34103994854172E-02   -0.10197094461397E+01
    0.45000000000000E+01   -0.65000000000000E+01    0.25000000000000E+00    0.11770736287105E+01    0.34103994854172E-02    0.34103994854172E-02   -0.10197094461397E+01
    0.55000000000000E+01   -0.65000000000000E+01    0.25000000000000E+00    0.11770736287105E+01    0.34103994854172E-02    0.34103994854172E-02   -0.10197094461397E+01
    0.65000000000000E+01   -0.65000000000000E+01    0.25000000000000E+00    0.11770736287105E+01    0.34103994854172E-02    0.34103994854172E-02   -0.10197094461397E+01
    0.75000000000000E+01   -0.65000000000000E+01    0.25000000000000E+00    0.11770736287105E+01    0.34103994854172E-02    0.34103994854172E-02   -0.10197094461397E+01
    0.85000000000000E+01   -0.65000000000000E+01    0.25000000000000E+00    0.11770736287105E+01    0.34103994854172E-02    0.34103994854172E-02   -0.10197094461397E+01
    0.95000000000000E+01   -0.65000000000000E+01    0.25000000000000E+00    0.11770736287105E+01    0.34103994854172E-02    0.34103994854172E-02   -0.10197094461397E+01
   -0.95000000000000E+01   -0.55000000000000E+01    0.25000000000000E+00    0.11770736287105E+01    0.34103994854172E-02    0.34103994854172E-02   -0.10197094461397E+01
   -0.85000000000000E+01   -0.55000000000000E+01    0.25000000000000E+00    0.11770736287105E+01    0.34103994854172E-02    0.34103994854172E-02   -0.10197094461397E+01
   -0.75000000000000E+01   -0.55000000000000E+01    0.25000000000000E+00    0.11770736287105E+01    0.34103994854172E-02    0.34103994854172E-02   -0.10197094461397E+01
   -0.65000000000000E+01   -0.55000000000000E+01    0.25000000000000E+00    0.11770736287105E+01    0.34103994854172E-02    0.34103994854172E-02   -0.10197094461397E+01
   -0.55000000000000E+01   -0.55000000000000E+01    0.25000000000000E+00    0.11770736287105E+01    0.34103994854172E-02    0.34103994854172E-02   -0.10197094461397E+01
   -0.45000000000000E+01   -0.55000000000000E+01    0.25000000000000E+00    0.11770736287105E+01    0.34103994854172E-02    0.34103994854172E-02   -0.10197094461397E+01
   -0.35000000000000E+01   -0.55000000000000E+01    0.25000000000000E+00    0.11770736287105E+01    0.34103994854172E-02    0.34103994854172E-02   -0.10197094461397E+01
   -0.25000000000000E+01   -0.55000000000000E+01    0.25000000000000E+00    0.11770736287105E+01    0.34103994854172E-02    0.34103994854172E-02   -0.10197094461397E+01
   -0.15000000000000E+01   -0.55000000000000E+01    0.25000000000000E+00    0.11770736287105E+01    0.34103994854172E-02    0.34103994854172E-02   -0.10197094461397E+01
   -0.50000000000000E+00   -0.55000000000000E+01    0.25000000000000E+00    0.11770736287105E+01    0.34103994854172E-02    0.34103994854172E-02   -0.10197094461397E+01
    0.50000000000000E+00   -0.55000000000000E+01    0.25000000000000E+00    0.11770736287105E+01    0.34103994854172E-02    0.34103994854172E-02   -0.10197094461397E+01
    0.15000000000000E+01   -0.55000000000000E+01    0.25000000000000E+00    0.11770736287105E+01    0.34103994854172E-02    0.34103994854172E-02   -0.10197094461397E+01
    0.25000000000000E+01   -0.55000000000000E+01    0.25000000000000E+00    0.11770736287105E+01    0.34103994854172E-02    0.34103994854172E-02   -0.10197094461397E+01
    0.35000000000000E+01   -0.55000000000000E+01    0.25000000000000E+00    0.11770736287105E+01    0.34103994854172E-02    0.34103994854172E-02   -0.10197094461397E+01
    0.45000000000000E+01   -0.55000000000000E+01    0.25000000000000E+00    0.11770736287105E+01    0.34103994854172E-02    0.34103994854172E-02   -0.10197094461397E+01
    0.55000000000000E+01   -0.55000000000000E+01    0.25000000000000E+00    0.11770736287105E+01    0.34103994854172E-02    0.34103994854172E-02   -0.10197094461397E+01
    0.65000000000000E+01   -0.55000000000000E+01    0.25000000000000E+00    0.11770736287105E+01    0.34103994854172E-02    0.34103994854172E-02   -0.10197094461397E+01
    0.75000000000000E+01   -0.55000000000000E+01    0.25000000000000E+00    0.11770736287105E+01    0.34103994854172E-02    0.34103994854172E-02   -0.10197094461397E+01
    0.85000000000000E+01   -0.55000000000000E+01    0.25000000000000E+00    0.11770736287105E+01    0.34103994854172E-02    0.34103994854172E-02   -0.10197094461397E+01
    0.95000000000000E+01   -0.55000000000000E+01    0.25000000000000E+00    0.11770736287105E+01    0.34103994854172E-02    0.34103994854172E-02   -0.10197094461397E+01
   -0.95000000000000E+01   -0.45000000000000E+01    0.25000000000000E+00    0.11770736287105E+01    0.34103994854172E-02    0.34103994854172E-02   -0.10197094461397E+01
   -0.85000000000000E+01   -0.45000000000000E+01    0.25000000000000E+00    0.11770736287105E+01    0.34103994854172E-02    0.34103994854172E-02   -0.10197094461397E+01
   -0.75000000000000E+01   -0.45000000000000E+01    0.25000000000000E+00    0.11770736287105E+01    0.34103994854172E-02    0.34103994854172E-02   -0.10197094461397E+01
   -0.65000000000000E+01   -0.45000000000000E+01    0.25000000000000E+00    0.11770736287105E+01    0.34103994854172E-02    0.34103994854172E-02   -0.10197094461397E+01
   -0.55000000000000E+01   -0.45000000000000E+01    0.25000000000000E+00    0.11770736287105E+01    0.34103994854172E-02    0.34103994854172E-02   -0.10197094461397E+01
   -0.45000000000000E+01   -0.45000000000000E+01    0.25000000000000E+00    0.11770736287105E+01    0.34103994854172E-02    0.34103994854172E-02   -0.10197094461397E+01
   -0.35000000000000E+01   -0.45000000000000E+01    0.25000000000000E+00    0.11770736287105E+01    0.34103994854172E-02    0.34103994854172E-02   -0.10197094461397E+01
   -0.25000000000000E+01   -0.45000000000000E+01    0.25000000000000E+00    0.11770736287105E+01    0.34103994854172E-02    0.34103994854172E-02   -0.10197094461397E+01
   -0.15000000000000E+01   -0.45000000000000E+01    0.25000000000000E+00    0.11770736287105E+01    0.34103994854172E-02    0.34103994854172E-02   -0.10197094461397E+01
   -0.50000000000000E+00   -0.45000000000000E+01    0.25000000000000E+00    0.11770736287105E+01    0.34103994854172E-02    0.34103994854172E-02   -0.10197094461397E+01
    0.50000000000000E+00   -0.45000000000000E+01    0.25000000000000E+00    0.11770736287105E+01    0.34103994854172E-02    0.34103994854172E-02   -0.10197094461397E+01
    0.15000000000000E+01   -0.45000000000000E+01    0.25000000000000E+00    0.11770736287105E+01    0.34103994854172E-02    0.34103994854172E-02   -0.10197094461397E+01
    0.25000000000000E+01   -0.45000000000000E+01    0.25000000000000E+00    0.11770736287105E+01    0.34103994854172E-02    0.34103994854172E-02   -0.10197094461397E+01
    0.35000000000000E+01   -0.45000000000000E+01    0.25000000000000E+00    0.11770736287105E+01    0.34103994854172E-02    0.34103994854172E-02   -0.10197094461397E+01
    0.45000000000000E+01   -0.45000000000000E+01    0.25000000000000E+00    0.11770736287105E+01    0.34103994854172E-02    0.34103994854172E-02   -0.10197094461397E+01
    0.55000000000000E+01   -0.45000000000000E+01    0.25000000000000E+00    0.11770736287105E+01    0.34103994854172E-02    0.34103994854172E-02   -0.10197094461397E+01
    0.65000000000000E+01   -0.45000000000000E+01    0.25000000000000E+00    0.11770736287105E+01    0.34103994854172E-02    0.34103994854172E-02   -0.10197094461397E+01
    0.75000000000000E+01   -0.45000000000000E+01    0.25000000000000E+00    0.11770736287105E+01    0.34103994854172E-02    0.34103994854172E-02   -0.10197094461397E+01
    0.85000000000000E+01   -0.45000000000000E+01    0.25000000000000E+00    0.11770736287105E+01    0.34103994854172E-02    0.34103994854172E-02   -0.10197094461397E+01
    0.95000000000000E+01   -0.45000000000000E+01    0.25000000000000E+00    0.11770736287105E+01    0.34103994854172E-02    0.34103994854172E-02   -0.10197094461397E+01
   -0.95000000000000E+01   -0.35000000000000E+01    0.25000000000000E+00    0.11770736287105E+01    0.34103994854172E-02    0.34103994854172E-02   -0.10197094461397E+01
   -0.85000000000000E+01   -0.35000000000000E+01    0.25000000000000E+00    0.11770736287105E+01    0.34103994854172E-02    0.34103994854172E-02   -0.10197094461397E+01
   -0.75000000000000E+01   -0.35000000000000E+01    0.25000000000000E+00    0.11770736287105E+01    0.34103994854172E-02    0.34103994854172E-02   -0.10197094461397E+01
   -0.65000000000000E+01   -0.35000000000000E+01    0.25000000000000E+00    0.11770736287105E+01    0.34103994854172E-02    0.34103994854172E-02   -0.10197094461397E+01
   -0.55000000000000E+01   -0.35000000000000E+01    0.25000000000000E+00    0.11770736287105E+01    0.34103994854172E-02    0.34103994854172E-02   -0.10197094461397E+01
   -0.45000000000000E+01   -0.35000000000000E+01    0.25000000000000E+00    0.11770736287105E+01    0.34103994854172E-02    0.34103994854172E-02   -0.10197094461397E+01
   -0.35000000000000E+01   -0.35000000000000E+01    0.25000000000000E+00    0.11770736287105E+01    0.34103994854172E-02    0.34103994854172E-02   -0.10197094461397E+01
   -0.25000000000000E+01   -0.35000000000000E+01    0.25000000000000E+00    0.11770736287105E+01    0.34103994854172E-02    0.34103994854172E-02   -0.10197094461397E+01
   -0.15000000000000E+01   -0.35000000000000E+01    0.25000000000000E+00    0.11770736287105E+01    0.34103994854172E-02    0.34103994854172E-02   -0.10197094461397E+01
   -0.50000000000000E+00   -0.35000000000000E+01    0.25000000000000E+00    0.11770736287105E+01    0.34103994854172E-02    0.34103994854172E-02   -0.10197094461397E+01
    0.50000000000000E+00   -0.35000000000000E+01    0.25000000000000E+00    0.11770736287105E+01    0.34103994854172E-02    0.34103994854172E-02   -0.10197094461397E+01
    0.15000000000000E+01   -0.35000000000000E+01    0.25000000000000E+00    0.11770736287105E+01    0.34103994854172E-02    0.34103994854172E-02   -0.10197094461397E+01
    0.25000000000000E+01   -0.35000000000000E+01    0.25000000000000E+00    0.11770736287105E+01    0.34103994854172E-02    0.34103994854172E-02   -0.10197094461397E+01
    0.35000000000000E+01   -0.35000000000000E+01    0.25000000000000E+00    0.11770736287105E+01    0.34103994854172E-02    0.34103994854172E-02   -0.10197094461397E+01
    0.45000000000000E+01   -0.35000000000000E+01    0.25000000000000E+00    0.11770736287105E+01    0.34103994854172E-02    0.34103994854172E-02   -0.10197094461397E+01
    0.55000000000000E+01   -0.35000000000000E+01    0.25000000000000E+00    0.11770736287105E+01    0.34103994854172E-02    0.34103994854172E-02   -0.10197094461397E+01
    0.65000000000000E+01   -0.35000000000000E+01    0.25000000000000E+00    0.11770736287105E+01    0.34103994854172E-02    0.34103994854172E-02   -0.10197094461397E+01
    0.75000000000000E+01   -0.35000000000000E+01    0.25000000000000E+00    0.11770736287105E+01    0.34103994854172E-02    0.34103994854172E-02   -0.10197094461397E+01
    0.85000000000000E+01   -0.35000000000000E+01    0.25000000000000E+00    0.11770736287105E+01    0.34103994854172E-02    0.34103994854172E-02   -0.10197094461397E+01
    0.95000000000000E+01   -0.35000000000000E+01    0.25000000000000E+00    0.11770736287105E+01    0.34103994854172E-02    0.34103994854172E-02   -0.10197094461397E+01
   -0.95000000000000E+01   -0.25000000000000E+01    0.25000000000000E+00    0.11770736287105E+01    0.34103994854172E-02    0.34103994854172E-02   -0.10197094461397E+01
   -0.85000000000000E+01   -0.25000000000000E+01    0.25000000000000E+00    0.11770736287105E+01    0.34103994854172E-02    0.34103994854172E-02   -0.10197094461397E+01
   -0.75000000000000E+01   -0.25000000000000E+01    0.25000000000000E+00    0.11770736287105E+01    0.34103994854172E-02    0.34103994854172E-02   -0.10197094461397E+01
   -0.65000000000000E+01   -0.25000000000000E+01    0.25000000000000E+00    0.11770736287105E+01    0.34103994854172E-02    0.34103994854172E-02   -0.10197094461397E+01
   -0.55000000000000E+01   -0.25000000000000E+01    0.25000000000000E+00    0.11770736287105E+01    0.34103994854172E-02    0.34103994854172E-02   -0.10197094461397E+01
   -0.45000000000000E+01   -0.25000000000000E+01    0.25000000000000E+00    0.11770736287105E+01    0.34103994854172E-02    0.34103994854172E-02   -0.10197094461397E+01
   -0.35000000000000E+01   -0.25000000000000E+01    0.25000000000000E+00    0.11770736287105E+01    0.34103994854172E-02    0.34103994854172E-02   -0.10197094461397E+01
   -0.25000000000000E+01   -0.25000000000000E+01    0.25000000000000E+00    0.11770736287105E+01    0.34103994854172E-02    0.34103994854172E-02   -0.10197094461397E+01
   -0.15000000000000E+01   -0.25000000000000E+01    0.25000000000000E+00    0.11770747610202E+01    0.34103994742660E-02    0.34103994742660E-02   -0.10197104237356E+01
   -0.50000000000000E+00   -0.25000000000000E+01    0.25000000000000E+00    0.11767350681061E+01    0.34094218886089E-02    0.34094218886089E-02   -0.10194171446941E+01
    0.50000000000000E+00   -0.25000000000000E+01    0.25000000000000E+00    0.11767350681061E+01    0.34094218886089E-02    0.34094218886089E-02   -0.10194171446941E+01
    0.15000000000000E+01   -0.25000000000000E+01    0.25000000000000E+00    0.11767350681061E+01    0.34094218886089E-02    0.34094218886089E-02   -0.10194171446941E+01
    0.25000000000000E+01   -0.25000000000000E+01    0.25000000000000E+00    0.11767350681061E+01    0.34094218886089E-02    0.34094218886089E-02   -0.10194171446941E+01
    0.35000000000000E+01   -0.25000000000000E+01    0.25000000000000E+00    0.11767350681061E+01    0.34094218886089E-02    0.34094218886089E-02   -0.10194171446941E+01
    0.45000000000000E+01   -0.25000000000000E+01    0.25000000000000E+00    0.11767350681061E+01    0.34094218886089E-02    0.34094218886089E-02   -0.10194171446941E+01
    0.55000000000000E+01   -0.25000000000000E+01    0.25000000000000E+00    0.11767350681061E+01    0.34094218886089E-02    0.34094218886089E-02   -0.10194171446941E+01
    0.65000000000000E+01   -0.25000000000000E+01    0.25000000000000E+00    0.11767350681061E+01    0.34094218886089E-02    0.34094218886089E-02   -0.10194171446941E+01
    0.75000000000000E+01   -0.25000000000000E+01    0.25000000000000E+00    0.11767350681061E+01    0.34094218886089E-02    0.34094218886089E-02   -0.10194171446941E+01
    0.85000000000000E+01   -0.25000000000000E+01    0.25000000000000E+00    0.11767350681061E+01    0.34094218886089E-02    0.34094218886089E-02   -0.10194171446941E+01
    0.95000000000000E+01   -0.25000000000000E+01    0.25000000000000E+00    0.11767350681061E+01    0.34094218886089E-02    0.34094218886089E-02   -0.10194171446941E+01
   -0.95000000000000E+01   -0.15000000000000E+01    0.25000000000000E+00    0.11767350681061E+01    0.34094218886089E-02    0.34094218886089E-02   -0.10194171446941E+01
   -0.85000000000000E+01   -0.15000000000000E+01    0.25000000000000E+00    0.11767350681061E+01    0.34094218886089E-02    0.34094218886089E-02   -0.10194171446941E+01
   -0.75000000000000E+01   -0.15000000000000E+01    0.25000000000000E+00    0.11767350681061E+01    0.34094218886089E-02    0.34094218886089E-02   -0.10194171446941E+01
   -0.65000000000000E+01   -0.15000000000000E+01    0.25000000000000E+00    0.11767350681061E+01    0.34094218886089E-02    0.34094218886089E-02   -0.10194171446941E+01
   -0.55000000000000E+01   -0.15000000000000E+01    0.25000000000000E+00    0.11767350681061E+01    0.34094218886089E-02    0.34094218886089E-02   -0.10194171446941E+01
   -0.45000000000000E+01   -0.15000000000000E+01    0.25000000000000E+00    0.11767350681061E+01    0.34094218886089E-02    0.34094218886089E-02   -0.10194171446941E+01
   -0.35000000000000E+01   -0.15000000000000E+01    0.25000000000000E+00    0.11767350681061E+01    0.34094218886089E-02    0.34094218886089E-02   -0.10194171446941E+01
   -0.25000000000000E+01   -0.15000000000000E+01    0.25000000000000E+00    0.11767350681061E+01    0.34094218886089E-02    0.34094218886089E-02   -0.10194171446941E+01
   -0.15000000000000E+01   -0.15000000000000E+01    0.25000000000000E+00    0.11767350681061E+01    0.34094218886089E-02    0.34094218886089E-02   -0.10194171446941E+01
   -0.50000000000000E+00   -0.15000000000000E+01    0.25000000000000E+00    0.11767350681061E+01    0.34094218886089E-02    0.34094218886089E-02   -0.10194171446941E+01
    0.50000000000000E+00   -0.15000000000000E+01    0.25000000000000E+00    0.11767350681061E+01    0.34094218886089E-02    0.34094218886089E-02   -0.10194171446941E+01
    0.15000000000000E+01   -0.15000000000000E+01    0.25000000000000E+00    0.11767350681061E+01    0.34094218886089E-02    0.34094218886089E-02   -0.10194171446941E+01
    0.25000000000000E+01   -0.15000000000000E+01    0.25000000000000E+00    0.11767350681061E+01    0.34094218886089E-02    0.34094218886089E-02   -0.10194171446941E+01
    0.35000000000000E+01   -0.15000000000000E+01    0.25000000000000E+00    0.11767350681061E+01    0.34094218886089E-02    0.34094218886089E-02   -0.10194171446941E+01
    0.45000000000000E+01   -0.15000000000000E+01    0.25000000000000E+00    0.11767350681061E+01    0.34094218886089E-02    0.34094218886089E-02   -0.10194171446941E+01
    0.55000000000000E+01   -0.15000000000000E+01    0.25000000000000E+00    0.11767350681061E+01    0.34094218886089E-02    0.34094218886089E-02   -0.10194171446941E+01