 TITLE = "vortex flow"
 VARIABLES = "x", "y", "z", "Density", "Velx", "Vely", "Pressure"
 ZONE STRANDID=1, SOLUTIONTIME=   10.000000000000000      , I=          20 , J=          20 K=          20  DATAPACKING=POINT
   -0.95000000000000E+01   -0.95000000000000E+01    0.25000000000000E+00   -0.11694012431666E+02   -0.35189619063997E-01   -0.35189619063997E-01    0.10521696100135E+02
   -0.85000000000000E+01   -0.95000000000000E+01    0.25000000000000E+00   -0.47494558726010E+01   -0.14000461140906E-01   -0.14000461140906E-01    0.41861378811309E+01
   -0.75000000000000E+01   -0.95000000000000E+01    0.25000000000000E+00    0.11776352829535E+01    0.34120212629100E-02    0.34120212629100E-02   -0.10201943576101E+01
   -0.65000000000000E+01   -0.95000000000000E+01    0.25000000000000E+00    0.11776352829535E+01    0.34120212629100E-02    0.34120212629100E-02   -0.10201943576101E+01
   -0.55000000000000E+01   -0.95000000000000E+01    0.25000000000000E+00    0.11776352829535E+01    0.34120212629100E-02    0.34120212629100E-02   -0.10201943576101E+01
   -0.45000000000000E+01   -0.95000000000000E+01    0.25000000000000E+00    0.11776352829535E+01    0.34120212629100E-02    0.34120212629100E-02   -0.10201943576101E+01
   -0.35000000000000E+01   -0.95000000000000E+01    0.25000000000000E+00    0.11776352829535E+01    0.34120212629100E-02    0.34120212629100E-02   -0.10201943576101E+01
   -0.25000000000000E+01   -0.95000000000000E+01    0.25000000000000E+00    0.11776352829535E+01    0.34120212629100E-02    0.34120212629100E-02   -0.10201943576101E+01
   -0.15000000000000E+01   -0.95000000000000E+01    0.25000000000000E+00    0.11776352829535E+01    0.34120212629100E-02    0.34120212629100E-02   -0.10201943576101E+01
   -0.50000000000000E+00   -0.95000000000000E+01    0.25000000000000E+00    0.11776352829535E+01    0.34120212629100E-02    0.34120212629100E-02   -0.10201943576101E+01
    0.50000000000000E+00   -0.95000000000000E+01    0.25000000000000E+00    0.11776352829535E+01    0.34120212629100E-02    0.34120212629100E-02   -0.10201943576101E+01
    0.15000000000000E+01   -0.95000000000000E+01    0.25000000000000E+00    0.11776352829535E+01    0.34120212629100E-02    0.34120212629100E-02   -0.10201943576101E+01
    0.25000000000000E+01   -0.95000000000000E+01    0.25000000000000E+00    0.11776352829535E+01    0.34120212629100E-02    0.34120212629100E-02   -0.10201943576101E+01
    0.35000000000000E+01   -0.95000000000000E+01    0.25000000000000E+00    0.11776352829535E+01    0.34120212629100E-02    0.34120212629100E-02   -0.10201943576101E+01
    0.45000000000000E+01   -0.95000000000000E+01    0.25000000000000E+00    0.11776352829535E+01    0.34120212629100E-02    0.34120212629100E-02   -0.10201943576101E+01
    0.55000000000000E+01   -0.95000000000000E+01    0.25000000000000E+00    0.11776352829535E+01    0.34120212629100E-02    0.34120212629100E-02   -0.10201943576101E+01
    0.65000000000000E+01   -0.95000000000000E+01    0.25000000000000E+00    0.11776352829535E+01    0.34120212629100E-02    0.34120212629100E-02   -0.10201943576101E+01
    0.75000000000000E+01   -0.95000000000000E+01    0.25000000000000E+00    0.11776352829535E+01    0.34120212629100E-02    0.34120212629100E-02   -0.10201943576101E+01
    0.85000000000000E+01   -0.95000000000000E+01    0.25000000000000E+00    0.11776352829535E+01    0.34120212629100E-02    0.34120212629100E-02   -0.10201943576101E+01
    0.95000000000000E+01   -0.95000000000000E+01    0.25000000000000E+00    0.11776352829535E+01    0.34120212629100E-02    0.34120212629100E-02   -0.10201943576101E+01
   -0.95000000000000E+01   -0.85000000000000E+01    0.25000000000000E+00   -0.47494558726010E+01   -0.14000461140906E-01   -0.14000461140906E-01    0.41861378811309E+01
   -0.85000000000000E+01   -0.85000000000000E+01    0.25000000000000E+00    0.11776352829535E+01    0.34120212629100E-02    0.34120212629100E-02   -0.10201943576101E+01
   -0.75000000000000E+01   -0.85000000000000E+01    0.25000000000000E+00    0.11776352829535E+01    0.34120212629100E-02    0.34120212629100E-02   -0.10201943576101E+01
   -0.65000000000000E+01   -0.85000000000000E+01    0.25000000000000E+00    0.11776352829535E+01    0.34120212629100E-02    0.34120212629100E-02   -0.10201943576101E+01
   -0.55000000000000E+01   -0.85000000000000E+01    0.25000000000000E+00    0.11776352829535E+01    0.34120212629100E-02    0.34120212629100E-02   -0.10201943576101E+01
   -0.45000000000000E+01   -0.85000000000000E+01    0.25000000000000E+00    0.11776352829535E+01    0.34120212629100E-02    0.34120212629100E-02   -0.10201943576101E+01
   -0.35000000000000E+01   -0.85000000000000E+01    0.25000000000000E+00    0.11776352829535E+01    0.34120212629100E-02    0.34120212629100E-02   -0.10201943576101E+01
   -0.25000000000000E+01   -0.85000000000000E+01    0.25000000000000E+00    0.11776352829535E+01    0.34120212629100E-02    0.34120212629100E-02   -0.10201943576101E+01
   -0.15000000000000E+01   -0.85000000000000E+01    0.25000000000000E+00    0.11776352829535E+01    0.34120212629100E-02    0.34120212629100E-02   -0.10201943576101E+01
   -0.50000000000000E+00   -0.85000000000000E+01    0.25000000000000E+00    0.11776352829535E+01    0.34120212629100E-02    0.34120212629100E-02   -0.10201943576101E+01
    0.50000000000000E+00   -0.85000000000000E+01    0.25000000000000E+00    0.11776352829535E+01    0.34120212629100E-02    0.34120212629100E-02   -0.10201943576101E+01
    0.15000000000000E+01   -0.85000000000000E+01    0.25000000000000E+00    0.11776352829535E+01    0.34120212629100E-02    0.34120212629100E-02   -0.10201943576101E+01
    0.25000000000000E+01   -0.85000000000000E+01    0.25000000000000E+00    0.11776352829535E+01    0.34120212629100E-02    0.34120212629100E-02   -0.10201943576101E+01
    0.35000000000000E+01   -0.85000000000000E+01    0.25000000000000E+00    0.11776352829535E+01    0.34120212629100E-02    0.34120212629100E-02   -0.10201943576101E+01
    0.45000000000000E+01   -0.85000000000000E+01    0.25000000000000E+00    0.11776352829535E+01    0.34120212629100E-02    0.34120212629100E-02   -0.10201943576101E+01
    0.55000000000000E+01   -0.85000000000000E+01    0.25000000000000E+00    0.11776352829535E+01    0.34120212629100E-02    0.34120212629100E-02   -0.10201943576101E+01
    0.65000000000000E+01   -0.85000000000000E+01    0.25000000000000E+00    0.11776352829535E+01    0.34120212629100E-02    0.34120212629100E-02   -0.10201943576101E+01
    0.75000000000000E+01   -0.85000000000000E+01    0.25000000000000E+00    0.11776352829535E+01    0.34120212629100E-02    0.34120212629100E-02   -0.10201943576101E+01
    0.85000000000000E+01   -0.85000000000000E+01    0.25000000000000E+00    0.11776352829535E+01    0.34120212629100E-02    0.34120212629100E-02   -0.10201943576101E+01
    0.95000000000000E+01   -0.85000000000000E+01    0.25000000000000E+00    0.11776352829535E+01    0.34120212629100E-02    0.34120212629100E-02   -0.10201943576101E+01
   -0.95000000000000E+01   -0.75000000000000E+01    0.25000000000000E+00    0.11793160850740E+01    0.34168745501968E-02    0.34168745501968E-02   -0.10216454905088E+01
   -0.85000000000000E+01   -0.75000000000000E+01    0.25000000000000E+00    0.11793160850740E+01    0.34168745501968E-02    0.34168745501968E-02   -0.10216454905088E+01
   -0.75000000000000E+01   -0.75000000000000E+01    0.25000000000000E+00    0.11793160850740E+01    0.34168745501968E-02    0.34168745501968E-02   -0.10216454905088E+01
   -0.65000000000000E+01   -0.75000000000000E+01    0.25000000000000E+00    0.11793160850740E+01    0.34168745501968E-02    0.34168745501968E-02   -0.10216454905088E+01
   -0.55000000000000E+01   -0.75000000000000E+01    0.25000000000000E+00    0.11793160850740E+01    0.34168745501968E-02    0.34168745501968E-02   -0.10216454905088E+01
   -0.45000000000000E+01   -0.75000000000000E+01    0.25000000000000E+00    0.11793160850740E+01    0.34168745501968E-02    0.34168745501968E-02   -0.10216454905088E+01
   -0.35000000000000E+01   -0.75000000000000E+01    0.25000000000000E+00    0.11793160850740E+01    0.34168745501968E-02    0.34168745501968E-02   -0.10216454905088E+01
   -0.25000000000000E+01   -0.75000000000000E+01    0.25000000000000E+00    0.11793160850740E+01    0.34168745501968E-02    0.34168745501968E-02   -0.10216454905088E+01
   -0.15000000000000E+01   -0.75000000000000E+01    0.25000000000000E+00    0.11793160850740E+01    0.34168745501968E-02    0.34168745501968E-02   -0.10216454905088E+01
   -0.50000000000000E+00   -0.75000000000000E+01    0.25000000000000E+00    0.11793160850740E+01    0.34168745501968E-02    0.34168745501968E-02   -0.10216454905088E+01
    0.50000000000000E+00   -0.75000000000000E+01    0.25000000000000E+00    0.11793172167328E+01    0.34168745390309E-02    0.34168745390309E-02   -0.10216464675301E+01
    0.15000000000000E+01   -0.75000000000000E+01    0.25000000000000E+00    0.11789777190895E+01    0.34158975280091E-02    0.34158975280091E-02   -0.10213533608747E+01
    0.25000000000000E+01   -0.75000000000000E+01    0.25000000000000E+00    0.11789777190895E+01    0.34158975280091E-02    0.34158975280091E-02   -0.10213533608747E+01
    0.35000000000000E+01   -0.75000000000000E+01    0.25000000000000E+00    0.11789777190895E+01    0.34158975280091E-02    0.34158975280091E-02   -0.10213533608747E+01
    0.45000000000000E+01   -0.75000000000000E+01    0.25000000000000E+00    0.11789777190895E+01    0.34158975280091E-02    0.34158975280091E-02   -0.10213533608747E+01
    0.55000000000000E+01   -0.75000000000000E+01    0.25000000000000E+00    0.11789777190895E+01    0.34158975280091E-02    0.34158975280091E-02   -0.10213533608747E+01
    0.65000000000000E+01   -0.75000000000000E+01    0.25000000000000E+00    0.11789777190895E+01    0.34158975280091E-02    0.34158975280091E-02   -0.10213533608747E+01
    0.75000000000000E+01   -0.75000000000000E+01    0.25000000000000E+00    0.11789777190895E+01    0.34158975280091E-02    0.34158975280091E-02   -0.10213533608747E+01
    0.85000000000000E+01   -0.75000000000000E+01    0.25000000000000E+00    0.11789777190895E+01    0.34158975280091E-02    0.34158975280091E-02   -0.10213533608747E+01
    0.95000000000000E+01   -0.75000000000000E+01    0.25000000000000E+00    0.11789777190895E+01    0.34158975280091E-02    0.34158975280091E-02   -0.10213533608747E+01
   -0.95000000000000E+01   -0.65000000000000E+01    0.25000000000000E+00    0.11790007074378E+01    0.34159639062736E-02    0.34159639062736E-02   -0.10213732079758E+01
   -0.85000000000000E+01   -0.65000000000000E+01    0.25000000000000E+00    0.11790007074378E+01    0.34159639062736E-02    0.34159639062736E-02   -0.10213732079758E+01
   -0.75000000000000E+01   -0.65000000000000E+01    0.25000000000000E+00    0.11790007074378E+01    0.34159639062736E-02    0.34159639062736E-02   -0.10213732079758E+01
   -0.65000000000000E+01   -0.65000000000000E+01    0.25000000000000E+00    0.11790007074378E+01    0.34159639062736E-02    0.34159639062736E-02   -0.10213732079758E+01
   -0.55000000000000E+01   -0.65000000000000E+01    0.25000000000000E+00    0.11790007074378E+01    0.34159639062736E-02    0.34159639062736E-02   -0.10213732079758E+01
   -0.45000000000000E+01   -0.65000000000000E+01    0.25000000000000E+00    0.11790007074378E+01    0.34159639062736E-02    0.34159639062736E-02   -0.10213732079758E+01
   -0.35000000000000E+01   -0.65000000000000E+01    0.25000000000000E+00    0.11790007074378E+01    0.34159639062736E-02    0.34159639062736E-02   -0.10213732079758E+01
   -0.25000000000000E+01   -0.65000000000000E+01    0.25000000000000E+00    0.11790007074378E+01    0.34159639062736E-02    0.34159639062736E-02   -0.10213732079758E+01
   -0.15000000000000E+01   -0.65000000000000E+01    0.25000000000000E+00    0.11790007074378E+01    0.34159639062736E-02    0.34159639062736E-02   -0.10213732079758E+01
   -0.50000000000000E+00   -0.65000000000000E+01    0.25000000000000E+00    0.11790007074378E+01    0.34159639062736E-02    0.34159639062736E-02   -0.10213732079758E+01
    0.50000000000000E+00   -0.65000000000000E+01    0.25000000000000E+00    0.11790007074378E+01    0.34159639062736E-02    0.34159639062736E-02   -0.10213732079758E+01
    0.15000000000000E+01   -0.65000000000000E+01    0.25000000000000E+00    0.11790007074378E+01    0.34159639062736E-02    0.34159639062736E-02   -0.10213732079758E+01
    0.25000000000000E+01   -0.65000000000000E+01    0.25000000000000E+00    0.11790007074378E+01    0.34159639062736E-02    0.34159639062736E-02   -0.10213732079758E+01
    0.35000000000000E+01   -0.65000000000000E+01    0.25000000000000E+00    0.11790007074378E+01    0.34159639062736E-02    0.34159639062736E-02   -0.10213732079758E+01
    0.45000000000000E+01   -0.65000000000000E+01    0.25000000000000E+00    0.11790007074378E+01    0.34159639062736E-02    0.34159639062736E-02   -0.10213732079758E+01
    0.55000000000000E+01   -0.65000000000000E+01    0.25000000000000E+00    0.11790007074378E+01    0.34159639062736E-02    0.34159639062736E-02   -0.10213732079758E+01
    0.65000000000000E+01   -0.65000000000000E+01    0.25000000000000E+00    0.11790007074378E+01    0.34159639062736E-02    0.34159639062736E-02   -0.10213732079758E+01
    0.75000000000000E+01   -0.65000000000000E+01    0.25000000000000E+00    0.11790007074378E+01    0.34159639062736E-02    0.34159639062736E-02   -0.10213732079758E+01
    0.85000000000000E+01   -0.65000000000000E+01    0.25000000000000E+00    0.11790007074378E+01    0.34159639062736E-02    0.34159639062736E-02   -0.10213732079758E+01
    0.95000000000000E+01   -0.65000000000000E+01    0.25000000000000E+00    0.11790007074378E+01    0.34159639062736E-02    0.34159639062736E-02   -0.10213732079758E+01
   -0.95000000000000E+01   -0.55000000000000E+01    0.25000000000000E+00    0.11772968838031E+01    0.34110441354715E-02    0.34110441354715E-02   -0.10199021965060E+01
   -0.85000000000000E+01   -0.55000000000000E+01    0.25000000000000E+00    0.11772968838031E+01    0.34110441354715E-02    0.34110441354715E-02   -0.10199021965060E+01
   -0.75000000000000E+01   -0.55000000000000E+01    0.25000000000000E+00    0.11772968838031E+01    0.34110441354715E-02    0.34110441354715E-02   -0.10199021965060E+01
   -0.65000000000000E+01   -0.55000000000000E+01    0.25000000000000E+00    0.11772968838031E+01    0.34110441354715E-02    0.34110441354715E-02   -0.10199021965060E+01
   -0.55000000000000E+01   -0.55000000000000E+01    0.25000000000000E+00    0.11772968838031E+01    0.34110441354715E-02    0.34110441354715E-02   -0.10199021965060E+01
   -0.45000000000000E+01   -0.55000000000000E+01    0.25000000000000E+00    0.11772968838031E+01    0.34110441354715E-02    0.34110441354715E-02   -0.10199021965060E+01
   -0.35000000000000E+01   -0.55000000000000E+01    0.25000000000000E+00    0.11772968838031E+01    0.34110441354715E-02    0.34110441354715E-02   -0.10199021965060E+01
   -0.25000000000000E+01   -0.55000000000000E+01    0.25000000000000E+00    0.11772968838031E+01    0.34110441354715E-02    0.34110441354715E-02   -0.10199021965060E+01
   -0.15000000000000E+01   -0.55000000000000E+01    0.25000000000000E+00    0.11772968838031E+01    0.34110441354715E-02    0.34110441354715E-02   -0.10199021965060E+01
   -0.50000000000000E+00   -0.55000000000000E+01    0.25000000000000E+00    0.11772968838031E+01    0.34110441354715E-02    0.34110441354715E-02   -0.10199021965060E+01
    0.50000000000000E+00   -0.55000000000000E+01    0.25000000000000E+00    0.11772968838031E+01    0.34110441354715E-02    0.34110441354715E-02   -0.10199021965060E+01
    0.15000000000000E+01   -0.55000000000000E+01    0.25000000000000E+00    0.11772968838031E+01    0.34110441354715E-02    0.34110441354715E-02   -0.10199021965060E+01
    0.25000000000000E+01   -0.55000000000000E+01    0.25000000000000E+00    0.11772968838031E+01    0.34110441354715E-02    0.34110441354715E-02   -0.10199021965060E+01
    0.35000000000000E+01   -0.55000000000000E+01    0.25000000000000E+00    0.11772968838031E+01    0.34110441354715E-02    0.34110441354715E-02   -0.10199021965060E+01
    0.45000000000000E+01   -0.55000000000000E+01    0.25000000000000E+00    0.11772968838031E+01    0.34110441354715E-02    0.34110441354715E-02   -0.10199021965060E+01
    0.55000000000000E+01   -0.55000000000000E+01    0.25000000000000E+00    0.11772968838031E+01    0.34110441354715E-02    0.34110441354715E-02   -0.10199021965060E+01
    0.65000000000000E+01   -0.55000000000000E+01    0.25000000000000E+00    0.11772968838031E+01    0.34110441354715E-02    0.34110441354715E-02   -0.10199021965060E+01
    0.75000000000000E+01   -0.55000000000000E+01    0.25000000000000E+00    0.11772968838031E+01    0.34110441354715E-02    0.34110441354715E-02   -0.10199021965060E+01
    0.85000000000000E+01   -0.55000000000000E+01    0.25000000000000E+00    0.11772968838031E+01    0.34110441354715E-02    0.34110441354715E-02   -0.10199021965060E+01
    0.95000000000000E+01   -0.55000000000000E+01    0.25000000000000E+00    0.11772968838031E+01    0.34110441354715E-02    0.34110441354715E-02   -0.10199021965060E+01
   -0.95000000000000E+01   -0.45000000000000E+01    0.25000000000000E+00    0.11772968838031E+01    0.34110441354715E-02    0.34110441354715E-02   -0.10199021965060E+01
   -0.85000000000000E+01   -0.45000000000000E+01    0.25000000000000E+00    0.11772968838031E+01    0.34110441354715E-02    0.34110441354715E-02   -0.10199021965060E+01
   -0.75000000000000E+01   -0.45000000000000E+01    0.25000000000000E+00    0.11772968838031E+01    0.34110441354715E-02    0.34110441354715E-02   -0.10199021965060E+01
   -0.65000000000000E+01   -0.45000000000000E+01    0.25000000000000E+00    0.11772968838031E+01    0.34110441354715E-02    0.34110441354715E-02   -0.10199021965060E+01
   -0.55000000000000E+01   -0.45000000000000E+01    0.25000000000000E+00    0.11772968838031E+01    0.34110441354715E-02    0.34110441354715E-02   -0.10199021965060E+01
   -0.45000000000000E+01   -0.45000000000000E+01    0.25000000000000E+00    0.11772968838031E+01    0.34110441354715E-02    0.34110441354715E-02   -0.10199021965060E+01
   -0.35000000000000E+01   -0.45000000000000E+01    0.25000000000000E+00    0.11772968838031E+01    0.34110441354715E-02    0.34110441354715E-02   -0.10199021965060E+01
   -0.25000000000000E+01   -0.45000000000000E+01    0.25000000000000E+00    0.11772968838031E+01    0.34110441354715E-02    0.34110441354715E-02   -0.10199021965060E+01
   -0.15000000000000E+01   -0.45000000000000E+01    0.25000000000000E+00    0.11772968838031E+01    0.34110441354715E-02    0.34110441354715E-02   -0.10199021965060E+01
   -0.50000000000000E+00   -0.45000000000000E+01    0.25000000000000E+00    0.11772968838031E+01    0.34110441354715E-02    0.34110441354715E-02   -0.10199021965060E+01
    0.50000000000000E+00   -0.45000000000000E+01    0.25000000000000E+00    0.11772968838031E+01    0.34110441354715E-02    0.34110441354715E-02   -0.10199021965060E+01
    0.15000000000000E+01   -0.45000000000000E+01    0.25000000000000E+00    0.11772968838031E+01    0.34110441354715E-02    0.34110441354715E-02   -0.10199021965060E+01
    0.25000000000000E+01   -0.45000000000000E+01    0.25000000000000E+00    0.11772968838031E+01    0.34110441354715E-02    0.34110441354715E-02   -0.10199021965060E+01
    0.35000000000000E+01   -0.45000000000000E+01    0.25000000000000E+00    0.11772968838031E+01    0.34110441354715E-02    0.34110441354715E-02   -0.10199021965060E+01
    0.45000000000000E+01   -0.45000000000000E+01    0.25000000000000E+00    0.11772968838031E+01    0.34110441354715E-02    0.34110441354715E-02   -0.10199021965060E+01
    0.55000000000000E+01   -0.45000000000000E+01    0.25000000000000E+00    0.11772968838031E+01    0.34110441354715E-02    0.34110441354715E-02   -0.10199021965060E+01
    0.65000000000000E+01   -0.45000000000000E+01    0.25000000000000E+00    0.11772968838031E+01    0.34110441354715E-02    0.34110441354715E-02   -0.10199021965060E+01
    0.75000000000000E+01   -0.45000000000000E+01    0.25000000000000E+00    0.11772968838031E+01    0.34110441354715E-02    0.34110441354715E-02   -0.10199021965060E+01
    0.85000000000000E+01   -0.45000000000000E+01    0.25000000000000E+00    0.11772968838031E+01    0.34110441354715E-02    0.34110441354715E-02   -0.10199021965060E+01
    0.95000000000000E+01   -0.45000000000000E+01    0.25000000000000E+00    0.11772968838031E+01    0.34110441354715E-02    0.34110441354715E-02   -0.10199021965060E+01
   -0.95000000000000E+01   -0.35000000000000E+01    0.25000000000000E+00    0.11772968838031E+01    0.34110441354715E-02    0.34110441354715E-02   -0.10199021965060E+01
   -0.85000000000000E+01   -0.35000000000000E+01    0.25000000000000E+00    0.11772968838031E+01    0.34110441354715E-02    0.34110441354715E-02   -0.10199021965060E+01
   -0.75000000000000E+01   -0.35000000000000E+01    0.25000000000000E+00    0.11772968838031E+01    0.34110441354715E-02    0.34110441354715E-02   -0.10199021965060E+01
   -0.65000000000000E+01   -0.35000000000000E+01    0.25000000000000E+00    0.11772968838031E+01    0.34110441354715E-02    0.34110441354715E-02   -0.10199021965060E+01
   -0.55000000000000E+01   -0.35000000000000E+01    0.25000000000000E+00    0.11772968838031E+01    0.34110441354715E-02    0.34110441354715E-02   -0.10199021965060E+01
   -0.45000000000000E+01   -0.35000000000000E+01    0.25000000000000E+00    0.11772968838031E+01    0.34110441354715E-02    0.34110441354715E-02   -0.10199021965060E+01
   -0.35000000000000E+01   -0.35000000000000E+01    0.25000000000000E+00    0.11772968838031E+01    0.34110441354715E-02    0.34110441354715E-02   -0.10199021965060E+01
   -0.25000000000000E+01   -0.35000000000000E+01    0.25000000000000E+00    0.11772968838031E+01    0.34110441354715E-02    0.34110441354715E-02   -0.10199021965060E+01
   -0.15000000000000E+01   -0.35000000000000E+01    0.25000000000000E+00    0.11772969223117E+01    0.34110442466651E-02    0.34110442466651E-02   -0.10199022297529E+01
   -0.50000000000000E+00   -0.35000000000000E+01    0.25000000000000E+00    0.11789781693712E+01    0.34158988281860E-02    0.34158988281860E-02   -0.10213537496276E+01
    0.50000000000000E+00   -0.35000000000000E+01    0.25000000000000E+00    0.11789781693712E+01    0.34158988281860E-02    0.34158988281860E-02   -0.10213537496276E+01
    0.15000000000000E+01   -0.35000000000000E+01    0.25000000000000E+00    0.11789781693712E+01    0.34158988281860E-02    0.34158988281860E-02   -0.10213537496276E+01
    0.25000000000000E+01   -0.35000000000000E+01    0.25000000000000E+00    0.11789781693712E+01    0.34158988281860E-02    0.34158988281860E-02   -0.10213537496276E+01
    0.35000000000000E+01   -0.35000000000000E+01    0.25000000000000E+00    0.11789781693712E+01    0.34158988281860E-02    0.34158988281860E-02   -0.10213537496276E+01
    0.45000000000000E+01   -0.35000000000000E+01    0.25000000000000E+00    0.11789781693712E+01    0.34158988281860E-02    0.34158988281860E-02   -0.10213537496276E+01
    0.55000000000000E+01   -0.35000000000000E+01    0.25000000000000E+00    0.11789781693712E+01    0.34158988281860E-02    0.34158988281860E-02   -0.10213537496276E+01
    0.65000000000000E+01   -0.35000000000000E+01    0.25000000000000E+00    0.11789781693712E+01    0.34158988281860E-02    0.34158988281860E-02   -0.10213537496276E+01
    0.75000000000000E+01   -0.35000000000000E+01    0.25000000000000E+00    0.11789781693712E+01    0.34158988281860E-02    0.34158988281860E-02   -0.10213537496276E+01
    0.85000000000000E+01   -0.35000000000000E+01    0.25000000000000E+00    0.11789781693712E+01    0.34158988281860E-02    0.34158988281860E-02   -0.10213537496276E+01
    0.95000000000000E+01   -0.35000000000000E+01    0.25000000000000E+00    0.11789793013554E+01    0.34158988170201E-02    0.34149181744148E-02   -0.10213547269316E+01
   -0.95000000000000E+01   -0.25000000000000E+01    0.25000000000000E+00    0.11786397061188E+01    0.34149215232323E-02    0.34149215232323E-02   -0.10210615354465E+01
   -0.85000000000000E+01   -0.25000000000000E+01    0.25000000000000E+00    0.11786397061188E+01    0.34149215232323E-02    0.34149215232323E-02   -0.10210615354465E+01
   -0.75000000000000E+01   -0.25000000000000E+01    0.25000000000000E+00    0.11786397061188E+01    0.34149215232323E-02    0.34149215232323E-02   -0.10210615354465E+01
   -0.65000000000000E+01   -0.25000000000000E+01    0.25000000000000E+00    0.11786397061188E+01    0.34149215232323E-02    0.34149215232323E-02   -0.10210615354465E+01
   -0.55000000000000E+01   -0.25000000000000E+01    0.25000000000000E+00    0.11786397061188E+01    0.34149215232323E-02    0.34149215232323E-02   -0.10210615354465E+01
   -0.45000000000000E+01   -0.25000000000000E+01    0.25000000000000E+00    0.11786397061188E+01    0.34149215232323E-02    0.34149215232323E-02   -0.10210615354465E+01
   -0.35000000000000E+01   -0.25000000000000E+01    0.25000000000000E+00    0.11786397061188E+01    0.34149215232323E-02    0.34149215232323E-02   -0.10210615354465E+01
   -0.25000000000000E+01   -0.25000000000000E+01    0.25000000000000E+00    0.11786397446274E+01    0.34149216344251E-02    0.34149216344251E-02   -0.10210615686931E+01
   -0.15000000000000E+01   -0.25000000000000E+01    0.25000000000000E+00    0.11803208377636E+01    0.34197757338513E-02    0.34197757338513E-02   -0.10225129444215E+01
   -0.50000000000000E+00   -0.25000000000000E+01    0.25000000000000E+00    0.11803670532726E+01    0.34199091789009E-02    0.34199091789009E-02   -0.10225528444914E+01
    0.50000000000000E+00   -0.25000000000000E+01    0.25000000000000E+00    0.11786627010601E+01    0.34149879206635E-02    0.34149879206635E-02   -0.10210813882784E+01
    0.15000000000000E+01   -0.25000000000000E+01    0.25000000000000E+00    0.11786627010601E+01    0.34149879206635E-02    0.34149879206635E-02   -0.10210813882784E+01
    0.25000000000000E+01   -0.25000000000000E+01    0.25000000000000E+00    0.11786627010601E+01    0.34149879206635E-02    0.34149879206635E-02   -0.10210813882784E+01
    0.35000000000000E+01   -0.25000000000000E+01    0.25000000000000E+00    0.11786627010601E+01    0.34149879206635E-02    0.34149879206635E-02   -0.10210813882784E+01
    0.45000000000000E+01   -0.25000000000000E+01    0.25000000000000E+00    0.11786627010601E+01    0.34149879206635E-02    0.34149879206635E-02   -0.10210813882784E+01
    0.55000000000000E+01   -0.25000000000000E+01    0.25000000000000E+00    0.11786627010601E+01    0.34149879206635E-02    0.34149879206635E-02   -0.10210813882784E+01
    0.65000000000000E+01   -0.25000000000000E+01    0.25000000000000E+00    0.11786627010601E+01    0.34149879206635E-02    0.34149879206635E-02   -0.10210813882784E+01
    0.75000000000000E+01   -0.25000000000000E+01    0.25000000000000E+00    0.11786627010601E+01    0.34149879206635E-02    0.34149879206635E-02   -0.10210813882784E+01
    0.85000000000000E+01   -0.25000000000000E+01    0.25000000000000E+00    0.11786627010601E+01    0.34149879206635E-02    0.34149879206635E-02   -0.10210813882784E+01
    0.95000000000000E+01   -0.25000000000000E+01    0.25000000000000E+00    0.11786627010601E+01    0.34149879206635E-02    0.34149879206635E-02   -0.10210813882784E+01
   -0.95000000000000E+01   -0.15000000000000E+01    0.25000000000000E+00    0.11786627010601E+01    0.34149879206635E-02    0.34149879206635E-02   -0.10210813882784E+01
   -0.85000000000000E+01   -0.15000000000000E+01    0.25000000000000E+00    0.11786627010601E+01    0.34149879206635E-02    0.34149879206635E-02   -0.10210813882784E+01
   -0.75000000000000E+01   -0.15000000000000E+01    0.25000000000000E+00    0.11786627010601E+01    0.34149879206635E-02    0.34149879206635E-02   -0.10210813882784E+01
   -0.65000000000000E+01   -0.15000000000000E+01    0.25000000000000E+00    0.11786627010601E+01    0.34149879206635E-02    0.34149879206635E-02   -0.10210813882784E+01
   -0.55000000000000E+01   -0.15000000000000E+01    0.25000000000000E+00    0.11786627010601E+01    0.34149879206635E-02    0.34149879206635E-02   -0.10210813882784E+01
   -0.45000000000000E+01   -0.15000000000000E+01    0.25000000000000E+00    0.11786627010601E+01    0.34149879206635E-02    0.34149879206635E-02   -0.10210813882784E+01
   -0.35000000000000E+01   -0.15000000000000E+01    0.25000000000000E+00    0.11786627010601E+01    0.34149879206635E-02    0.34149879206635E-02   -0.10210813882784E+01
   -0.25000000000000E+01   -0.15000000000000E+01    0.25000000000000E+00    0.11786627010601E+01    0.34149879206635E-02    0.34149879206635E-02   -0.10210813882784E+01
   -0.15000000000000E+01   -0.15000000000000E+01    0.25000000000000E+00    0.11786627395687E+01    0.34149880318563E-02    0.34149880318563E-02   -0.10210814215250E+01
   -0.50000000000000E+00   -0.15000000000000E+01    0.25000000000000E+00    0.11769583873561E+01    0.34100667251785E-02    0.34100667251785E-02   -0.10196099508284E+01
    0.50000000000000E+00   -0.15000000000000E+01    0.25000000000000E+00    0.11769583873561E+01    0.34100667251785E-02    0.34100667251785E-02   -0.10196099508284E+01
    0.15000000000000E+01   -0.15000000000000E+01    0.25000000000000E+00    0.11769583873561E+01    0.34100667251785E-02    0.34100667251785E-02   -0.10196099508284E+01
    0.25000000000000E+01   -0.15000000000000E+01    0.25000000000000E+00    0.11769583873561E+01    0.34100667251785E-02    0.34100667251785E-02   -0.10196099508284E+01
    0.35000000000000E+01   -0.15000000000000E+01    0.25000000000000E+00    0.11769583873561E+01    0.34100667251785E-02    0.34100667251785E-02   -0.10196099508284E+01
    0.45000000000000E+01   -0.15000000000000E+01    0.25000000000000E+00    0.11769583873561E+01    0.34100667251785E-02    0.34100667251785E-02   -0.10196099508284E+01
    0.55000000000000E+01   -0.15000000000000E+01    0.25000000000000E+00    0.11769583873561E+01    0.34100667251785E-02    0.34100667251785E-02   -0.10196099508284E+01