 TITLE = "vortex flow"
 VARIABLES = "x", "y", "z", "Density", "Velx", "Vely", "Pressure"
 ZONE STRANDID=1, SOLUTIONTIME=   1.0000000000000001E-005 , I=          20 , J=          20 K=          20  DATAPACKING=POINT
   -0.95000000000000E+01   -0.95000000000000E+01    0.25000000000000E+00    0.00000000000000E+00    0.00000000000000E+00    0.00000000000000E+00    0.00000000000000E+00
   -0.85000000000000E+01   -0.95000000000000E+01    0.25000000000000E+00    0.00000000000000E+00    0.00000000000000E+00    0.00000000000000E+00    0.00000000000000E+00
   -0.75000000000000E+01   -0.95000000000000E+01    0.25000000000000E+00    0.00000000000000E+00    0.00000000000000E+00    0.00000000000000E+00    0.00000000000000E+00
   -0.65000000000000E+01   -0.95000000000000E+01    0.25000000000000E+00    0.00000000000000E+00    0.00000000000000E+00    0.00000000000000E+00    0.00000000000000E+00
   -0.55000000000000E+01   -0.95000000000000E+01    0.25000000000000E+00    0.00000000000000E+00    0.00000000000000E+00    0.00000000000000E+00    0.00000000000000E+00
   -0.45000000000000E+01   -0.95000000000000E+01    0.25000000000000E+00    0.00000000000000E+00    0.00000000000000E+00    0.00000000000000E+00    0.00000000000000E+00
   -0.35000000000000E+01   -0.95000000000000E+01    0.25000000000000E+00    0.00000000000000E+00    0.00000000000000E+00    0.00000000000000E+00    0.00000000000000E+00
   -0.25000000000000E+01   -0.95000000000000E+01    0.25000000000000E+00    0.00000000000000E+00    0.00000000000000E+00    0.00000000000000E+00    0.00000000000000E+00
   -0.15000000000000E+01   -0.95000000000000E+01    0.25000000000000E+00    0.00000000000000E+00    0.00000000000000E+00    0.00000000000000E+00    0.00000000000000E+00
   -0.50000000000000E+00   -0.95000000000000E+01    0.25000000000000E+00    0.00000000000000E+00    0.00000000000000E+00    0.00000000000000E+00    0.00000000000000E+00
    0.50000000000000E+00   -0.95000000000000E+01    0.25000000000000E+00    0.00000000000000E+00    0.00000000000000E+00    0.00000000000000E+00    0.00000000000000E+00
    0.15000000000000E+01   -0.95000000000000E+01    0.25000000000000E+00    0.00000000000000E+00    0.00000000000000E+00    0.00000000000000E+00    0.00000000000000E+00
    0.25000000000000E+01   -0.95000000000000E+01    0.25000000000000E+00    0.00000000000000E+00    0.00000000000000E+00    0.00000000000000E+00    0.00000000000000E+00
    0.35000000000000E+01   -0.95000000000000E+01    0.25000000000000E+00    0.00000000000000E+00    0.00000000000000E+00    0.00000000000000E+00    0.00000000000000E+00
    0.45000000000000E+01   -0.95000000000000E+01    0.25000000000000E+00    0.00000000000000E+00    0.00000000000000E+00    0.00000000000000E+00    0.00000000000000E+00
    0.55000000000000E+01   -0.95000000000000E+01    0.25000000000000E+00    0.00000000000000E+00    0.00000000000000E+00    0.00000000000000E+00    0.00000000000000E+00
    0.65000000000000E+01   -0.95000000000000E+01    0.25000000000000E+00    0.00000000000000E+00    0.00000000000000E+00    0.00000000000000E+00    0.00000000000000E+00
    0.75000000000000E+01   -0.95000000000000E+01    0.25000000000000E+00    0.00000000000000E+00    0.00000000000000E+00    0.00000000000000E+00    0.00000000000000E+00
    0.85000000000000E+01   -0.95000000000000E+01    0.25000000000000E+00    0.00000000000000E+00    0.00000000000000E+00    0.00000000000000E+00    0.00000000000000E+00
    0.95000000000000E+01   -0.95000000000000E+01    0.25000000000000E+00    0.00000000000000E+00    0.00000000000000E+00    0.00000000000000E+00    0.00000000000000E+00
   -0.95000000000000E+01   -0.85000000000000E+01    0.25000000000000E+00    0.00000000000000E+00    0.00000000000000E+00    0.00000000000000E+00    0.00000000000000E+00
   -0.85000000000000E+01   -0.85000000000000E+01    0.25000000000000E+00    0.00000000000000E+00    0.00000000000000E+00    0.00000000000000E+00    0.00000000000000E+00
   -0.75000000000000E+01   -0.85000000000000E+01    0.25000000000000E+00    0.00000000000000E+00    0.00000000000000E+00    0.00000000000000E+00    0.00000000000000E+00
   -0.65000000000000E+01   -0.85000000000000E+01    0.25000000000000E+00    0.00000000000000E+00    0.00000000000000E+00    0.00000000000000E+00    0.00000000000000E+00
   -0.55000000000000E+01   -0.85000000000000E+01    0.25000000000000E+00    0.00000000000000E+00    0.00000000000000E+00    0.00000000000000E+00    0.00000000000000E+00
   -0.45000000000000E+01   -0.85000000000000E+01    0.25000000000000E+00    0.00000000000000E+00    0.00000000000000E+00    0.00000000000000E+00    0.00000000000000E+00
   -0.35000000000000E+01   -0.85000000000000E+01    0.25000000000000E+00    0.00000000000000E+00    0.00000000000000E+00    0.00000000000000E+00    0.00000000000000E+00
   -0.25000000000000E+01   -0.85000000000000E+01    0.25000000000000E+00    0.00000000000000E+00    0.00000000000000E+00    0.00000000000000E+00    0.00000000000000E+00
   -0.15000000000000E+01   -0.85000000000000E+01    0.25000000000000E+00    0.00000000000000E+00    0.00000000000000E+00    0.00000000000000E+00    0.00000000000000E+00
   -0.50000000000000E+00   -0.85000000000000E+01    0.25000000000000E+00    0.00000000000000E+00    0.00000000000000E+00    0.00000000000000E+00    0.00000000000000E+00
    0.50000000000000E+00   -0.85000000000000E+01    0.25000000000000E+00    0.00000000000000E+00    0.00000000000000E+00    0.00000000000000E+00    0.00000000000000E+00
    0.15000000000000E+01   -0.85000000000000E+01    0.25000000000000E+00    0.00000000000000E+00    0.00000000000000E+00    0.00000000000000E+00    0.00000000000000E+00
    0.25000000000000E+01   -0.85000000000000E+01    0.25000000000000E+00    0.00000000000000E+00    0.00000000000000E+00    0.00000000000000E+00    0.00000000000000E+00
    0.35000000000000E+01   -0.85000000000000E+01    0.25000000000000E+00    0.00000000000000E+00    0.00000000000000E+00    0.00000000000000E+00    0.00000000000000E+00
    0.45000000000000E+01   -0.85000000000000E+01    0.25000000000000E+00    0.00000000000000E+00    0.00000000000000E+00    0.00000000000000E+00    0.00000000000000E+00
    0.55000000000000E+01   -0.85000000000000E+01    0.25000000000000E+00    0.00000000000000E+00    0.00000000000000E+00    0.00000000000000E+00    0.00000000000000E+00
    0.65000000000000E+01   -0.85000000000000E+01    0.25000000000000E+00    0.00000000000000E+00    0.00000000000000E+00    0.00000000000000E+00    0.00000000000000E+00
    0.75000000000000E+01   -0.85000000000000E+01    0.25000000000000E+00    0.00000000000000E+00    0.00000000000000E+00    0.00000000000000E+00    0.00000000000000E+00
    0.85000000000000E+01   -0.85000000000000E+01    0.25000000000000E+00    0.00000000000000E+00    0.00000000000000E+00    0.00000000000000E+00    0.00000000000000E+00
    0.95000000000000E+01   -0.85000000000000E+01    0.25000000000000E+00    0.00000000000000E+00    0.00000000000000E+00    0.00000000000000E+00    0.00000000000000E+00
   -0.95000000000000E+01   -0.75000000000000E+01    0.25000000000000E+00    0.00000000000000E+00    0.00000000000000E+00    0.00000000000000E+00    0.00000000000000E+00
   -0.85000000000000E+01   -0.75000000000000E+01    0.25000000000000E+00    0.00000000000000E+00    0.00000000000000E+00    0.00000000000000E+00    0.00000000000000E+00
   -0.75000000000000E+01   -0.75000000000000E+01    0.25000000000000E+00    0.00000000000000E+00    0.00000000000000E+00    0.00000000000000E+00    0.00000000000000E+00
   -0.65000000000000E+01   -0.75000000000000E+01    0.25000000000000E+00    0.00000000000000E+00    0.00000000000000E+00    0.00000000000000E+00    0.00000000000000E+00
   -0.55000000000000E+01   -0.75000000000000E+01    0.25000000000000E+00    0.00000000000000E+00    0.00000000000000E+00    0.00000000000000E+00    0.00000000000000E+00
   -0.45000000000000E+01   -0.75000000000000E+01    0.25000000000000E+00    0.00000000000000E+00    0.00000000000000E+00    0.00000000000000E+00    0.00000000000000E+00
   -0.35000000000000E+01   -0.75000000000000E+01    0.25000000000000E+00    0.00000000000000E+00    0.00000000000000E+00    0.00000000000000E+00    0.00000000000000E+00
   -0.25000000000000E+01   -0.75000000000000E+01    0.25000000000000E+00    0.00000000000000E+00    0.00000000000000E+00    0.00000000000000E+00    0.00000000000000E+00
   -0.15000000000000E+01   -0.75000000000000E+01    0.25000000000000E+00    0.00000000000000E+00    0.00000000000000E+00    0.00000000000000E+00    0.00000000000000E+00
   -0.50000000000000E+00   -0.75000000000000E+01    0.25000000000000E+00    0.00000000000000E+00    0.00000000000000E+00    0.00000000000000E+00    0.00000000000000E+00
    0.50000000000000E+00   -0.75000000000000E+01    0.25000000000000E+00    0.00000000000000E+00    0.00000000000000E+00    0.00000000000000E+00    0.00000000000000E+00
    0.15000000000000E+01   -0.75000000000000E+01    0.25000000000000E+00    0.00000000000000E+00    0.00000000000000E+00    0.00000000000000E+00    0.00000000000000E+00
    0.25000000000000E+01   -0.75000000000000E+01    0.25000000000000E+00    0.00000000000000E+00    0.00000000000000E+00    0.00000000000000E+00    0.00000000000000E+00
    0.35000000000000E+01   -0.75000000000000E+01    0.25000000000000E+00    0.00000000000000E+00    0.00000000000000E+00    0.00000000000000E+00    0.00000000000000E+00
    0.45000000000000E+01   -0.75000000000000E+01    0.25000000000000E+00    0.00000000000000E+00    0.00000000000000E+00    0.00000000000000E+00    0.00000000000000E+00
    0.55000000000000E+01   -0.75000000000000E+01    0.25000000000000E+00    0.00000000000000E+00    0.00000000000000E+00    0.00000000000000E+00    0.00000000000000E+00
    0.65000000000000E+01   -0.75000000000000E+01    0.25000000000000E+00    0.00000000000000E+00    0.00000000000000E+00    0.00000000000000E+00    0.00000000000000E+00
    0.75000000000000E+01   -0.75000000000000E+01    0.25000000000000E+00    0.00000000000000E+00    0.00000000000000E+00    0.00000000000000E+00    0.00000000000000E+00
    0.85000000000000E+01   -0.75000000000000E+01    0.25000000000000E+00    0.00000000000000E+00    0.00000000000000E+00    0.00000000000000E+00    0.00000000000000E+00
    0.95000000000000E+01   -0.75000000000000E+01    0.25000000000000E+00    0.00000000000000E+00    0.00000000000000E+00    0.00000000000000E+00    0.00000000000000E+00
   -0.95000000000000E+01   -0.65000000000000E+01    0.25000000000000E+00    0.00000000000000E+00    0.00000000000000E+00    0.00000000000000E+00    0.00000000000000E+00
   -0.85000000000000E+01   -0.65000000000000E+01    0.25000000000000E+00    0.00000000000000E+00    0.00000000000000E+00    0.00000000000000E+00    0.00000000000000E+00
   -0.75000000000000E+01   -0.65000000000000E+01    0.25000000000000E+00    0.00000000000000E+00    0.00000000000000E+00    0.00000000000000E+00    0.00000000000000E+00
   -0.65000000000000E+01   -0.65000000000000E+01    0.25000000000000E+00    0.00000000000000E+00    0.00000000000000E+00    0.00000000000000E+00    0.00000000000000E+00
   -0.55000000000000E+01   -0.65000000000000E+01    0.25000000000000E+00    0.00000000000000E+00    0.00000000000000E+00    0.00000000000000E+00    0.00000000000000E+00
   -0.45000000000000E+01   -0.65000000000000E+01    0.25000000000000E+00    0.00000000000000E+00    0.00000000000000E+00    0.00000000000000E+00    0.00000000000000E+00
   -0.35000000000000E+01   -0.65000000000000E+01    0.25000000000000E+00    0.00000000000000E+00    0.00000000000000E+00    0.00000000000000E+00    0.00000000000000E+00
   -0.25000000000000E+01   -0.65000000000000E+01    0.25000000000000E+00    0.00000000000000E+00    0.00000000000000E+00    0.00000000000000E+00    0.00000000000000E+00
   -0.15000000000000E+01   -0.65000000000000E+01    0.25000000000000E+00    0.00000000000000E+00    0.00000000000000E+00    0.00000000000000E+00    0.00000000000000E+00
   -0.50000000000000E+00   -0.65000000000000E+01    0.25000000000000E+00    0.00000000000000E+00    0.00000000000000E+00    0.00000000000000E+00    0.00000000000000E+00
    0.50000000000000E+00   -0.65000000000000E+01    0.25000000000000E+00    0.00000000000000E+00    0.00000000000000E+00    0.00000000000000E+00    0.00000000000000E+00
    0.15000000000000E+01   -0.65000000000000E+01    0.25000000000000E+00    0.00000000000000E+00    0.00000000000000E+00    0.00000000000000E+00    0.00000000000000E+00
    0.25000000000000E+01   -0.65000000000000E+01    0.25000000000000E+00    0.00000000000000E+00    0.00000000000000E+00    0.00000000000000E+00    0.00000000000000E+00
    0.35000000000000E+01   -0.65000000000000E+01    0.25000000000000E+00    0.00000000000000E+00    0.00000000000000E+00    0.00000000000000E+00    0.00000000000000E+00
    0.45000000000000E+01   -0.65000000000000E+01    0.25000000000000E+00    0.00000000000000E+00    0.00000000000000E+00    0.00000000000000E+00    0.00000000000000E+00
    0.55000000000000E+01   -0.65000000000000E+01    0.25000000000000E+00    0.00000000000000E+00    0.00000000000000E+00    0.00000000000000E+00    0.00000000000000E+00
    0.65000000000000E+01   -0.65000000000000E+01    0.25000000000000E+00    0.00000000000000E+00    0.00000000000000E+00    0.00000000000000E+00    0.00000000000000E+00
    0.75000000000000E+01   -0.65000000000000E+01    0.25000000000000E+00    0.00000000000000E+00    0.00000000000000E+00    0.00000000000000E+00    0.00000000000000E+00
    0.85000000000000E+01   -0.65000000000000E+01    0.25000000000000E+00    0.00000000000000E+00    0.00000000000000E+00    0.00000000000000E+00    0.00000000000000E+00
    0.95000000000000E+01   -0.65000000000000E+01    0.25000000000000E+00    0.00000000000000E+00    0.00000000000000E+00    0.00000000000000E+00    0.00000000000000E+00
   -0.95000000000000E+01   -0.55000000000000E+01    0.25000000000000E+00    0.00000000000000E+00    0.00000000000000E+00    0.00000000000000E+00    0.00000000000000E+00
   -0.85000000000000E+01   -0.55000000000000E+01    0.25000000000000E+00    0.00000000000000E+00    0.00000000000000E+00    0.00000000000000E+00    0.00000000000000E+00
   -0.75000000000000E+01   -0.55000000000000E+01    0.25000000000000E+00    0.00000000000000E+00    0.00000000000000E+00    0.00000000000000E+00    0.00000000000000E+00
   -0.65000000000000E+01   -0.55000000000000E+01    0.25000000000000E+00    0.00000000000000E+00    0.00000000000000E+00    0.00000000000000E+00    0.00000000000000E+00
   -0.55000000000000E+01   -0.55000000000000E+01    0.25000000000000E+00    0.00000000000000E+00    0.00000000000000E+00    0.00000000000000E+00    0.00000000000000E+00
   -0.45000000000000E+01   -0.55000000000000E+01    0.25000000000000E+00    0.00000000000000E+00    0.00000000000000E+00    0.00000000000000E+00    0.00000000000000E+00
   -0.35000000000000E+01   -0.55000000000000E+01    0.25000000000000E+00    0.00000000000000E+00    0.00000000000000E+00    0.00000000000000E+00    0.00000000000000E+00
   -0.25000000000000E+01   -0.55000000000000E+01    0.25000000000000E+00    0.00000000000000E+00    0.00000000000000E+00    0.00000000000000E+00    0.00000000000000E+00
   -0.15000000000000E+01   -0.55000000000000E+01    0.25000000000000E+00    0.00000000000000E+00    0.00000000000000E+00    0.00000000000000E+00    0.00000000000000E+00
   -0.50000000000000E+00   -0.55000000000000E+01    0.25000000000000E+00    0.00000000000000E+00    0.00000000000000E+00    0.00000000000000E+00    0.00000000000000E+00
    0.50000000000000E+00   -0.55000000000000E+01    0.25000000000000E+00    0.00000000000000E+00    0.00000000000000E+00    0.00000000000000E+00    0.00000000000000E+00
    0.15000000000000E+01   -0.55000000000000E+01    0.25000000000000E+00    0.00000000000000E+00    0.00000000000000E+00    0.00000000000000E+00    0.00000000000000E+00
    0.25000000000000E+01   -0.55000000000000E+01    0.25000000000000E+00    0.00000000000000E+00    0.00000000000000E+00    0.00000000000000E+00    0.00000000000000E+00
    0.35000000000000E+01   -0.55000000000000E+01    0.25000000000000E+00    0.00000000000000E+00    0.00000000000000E+00    0.00000000000000E+00    0.00000000000000E+00
    0.45000000000000E+01   -0.55000000000000E+01    0.25000000000000E+00    0.00000000000000E+00    0.00000000000000E+00    0.00000000000000E+00    0.00000000000000E+00
    0.55000000000000E+01   -0.55000000000000E+01    0.25000000000000E+00    0.00000000000000E+00    0.00000000000000E+00    0.00000000000000E+00    0.00000000000000E+00
    0.65000000000000E+01   -0.55000000000000E+01    0.25000000000000E+00    0.00000000000000E+00    0.00000000000000E+00    0.00000000000000E+00    0.00000000000000E+00
    0.75000000000000E+01   -0.55000000000000E+01    0.25000000000000E+00    0.00000000000000E+00    0.00000000000000E+00    0.00000000000000E+00    0.00000000000000E+00
    0.85000000000000E+01   -0.55000000000000E+01    0.25000000000000E+00    0.00000000000000E+00    0.00000000000000E+00    0.00000000000000E+00    0.00000000000000E+00
    0.95000000000000E+01   -0.55000000000000E+01    0.25000000000000E+00    0.00000000000000E+00    0.00000000000000E+00    0.00000000000000E+00    0.00000000000000E+00
   -0.95000000000000E+01   -0.45000000000000E+01    0.25000000000000E+00    0.00000000000000E+00    0.00000000000000E+00    0.00000000000000E+00    0.00000000000000E+00
   -0.85000000000000E+01   -0.45000000000000E+01    0.25000000000000E+00    0.00000000000000E+00    0.00000000000000E+00    0.00000000000000E+00    0.00000000000000E+00
   -0.75000000000000E+01   -0.45000000000000E+01    0.25000000000000E+00    0.00000000000000E+00    0.00000000000000E+00    0.00000000000000E+00    0.00000000000000E+00
   -0.65000000000000E+01   -0.45000000000000E+01    0.25000000000000E+00    0.00000000000000E+00    0.00000000000000E+00    0.00000000000000E+00    0.00000000000000E+00
   -0.55000000000000E+01   -0.45000000000000E+01    0.25000000000000E+00    0.00000000000000E+00    0.00000000000000E+00    0.00000000000000E+00    0.00000000000000E+00
   -0.45000000000000E+01   -0.45000000000000E+01    0.25000000000000E+00    0.00000000000000E+00    0.00000000000000E+00    0.00000000000000E+00    0.00000000000000E+00
   -0.35000000000000E+01   -0.45000000000000E+01    0.25000000000000E+00    0.00000000000000E+00    0.00000000000000E+00    0.00000000000000E+00    0.00000000000000E+00
   -0.25000000000000E+01   -0.45000000000000E+01    0.25000000000000E+00    0.00000000000000E+00    0.00000000000000E+00    0.00000000000000E+00    0.00000000000000E+00
   -0.15000000000000E+01   -0.45000000000000E+01    0.25000000000000E+00    0.00000000000000E+00    0.00000000000000E+00    0.00000000000000E+00    0.00000000000000E+00
   -0.50000000000000E+00   -0.45000000000000E+01    0.25000000000000E+00    0.00000000000000E+00    0.00000000000000E+00    0.00000000000000E+00    0.00000000000000E+00
    0.50000000000000E+00   -0.45000000000000E+01    0.25000000000000E+00    0.00000000000000E+00    0.00000000000000E+00    0.00000000000000E+00    0.00000000000000E+00
    0.15000000000000E+01   -0.45000000000000E+01    0.25000000000000E+00    0.00000000000000E+00    0.00000000000000E+00    0.00000000000000E+00    0.00000000000000E+00
    0.25000000000000E+01   -0.45000000000000E+01    0.25000000000000E+00    0.00000000000000E+00    0.00000000000000E+00    0.00000000000000E+00    0.00000000000000E+00
    0.35000000000000E+01   -0.45000000000000E+01    0.25000000000000E+00    0.00000000000000E+00    0.00000000000000E+00    0.00000000000000E+00    0.00000000000000E+00
    0.45000000000000E+01   -0.45000000000000E+01    0.25000000000000E+00    0.00000000000000E+00    0.00000000000000E+00    0.00000000000000E+00    0.00000000000000E+00
    0.55000000000000E+01   -0.45000000000000E+01    0.25000000000000E+00    0.00000000000000E+00    0.00000000000000E+00    0.00000000000000E+00    0.00000000000000E+00
    0.65000000000000E+01   -0.45000000000000E+01    0.25000000000000E+00    0.00000000000000E+00    0.00000000000000E+00    0.00000000000000E+00    0.00000000000000E+00
    0.75000000000000E+01   -0.45000000000000E+01    0.25000000000000E+00    0.00000000000000E+00    0.00000000000000E+00    0.00000000000000E+00    0.00000000000000E+00
    0.85000000000000E+01   -0.45000000000000E+01    0.25000000000000E+00    0.00000000000000E+00    0.00000000000000E+00    0.00000000000000E+00    0.00000000000000E+00
    0.95000000000000E+01   -0.45000000000000E+01    0.25000000000000E+00    0.00000000000000E+00    0.00000000000000E+00    0.00000000000000E+00    0.00000000000000E+00
   -0.95000000000000E+01   -0.35000000000000E+01    0.25000000000000E+00    0.00000000000000E+00    0.00000000000000E+00    0.00000000000000E+00    0.00000000000000E+00
   -0.85000000000000E+01   -0.35000000000000E+01    0.25000000000000E+00    0.00000000000000E+00    0.00000000000000E+00    0.00000000000000E+00    0.00000000000000E+00
   -0.75000000000000E+01   -0.35000000000000E+01    0.25000000000000E+00    0.00000000000000E+00    0.00000000000000E+00    0.00000000000000E+00    0.00000000000000E+00
   -0.65000000000000E+01   -0.35000000000000E+01    0.25000000000000E+00    0.00000000000000E+00    0.00000000000000E+00    0.00000000000000E+00    0.00000000000000E+00
   -0.55000000000000E+01   -0.35000000000000E+01    0.25000000000000E+00    0.00000000000000E+00    0.00000000000000E+00    0.00000000000000E+00    0.00000000000000E+00
   -0.45000000000000E+01   -0.35000000000000E+01    0.25000000000000E+00    0.00000000000000E+00    0.00000000000000E+00    0.00000000000000E+00    0.00000000000000E+00
   -0.35000000000000E+01   -0.35000000000000E+01    0.25000000000000E+00    0.00000000000000E+00    0.00000000000000E+00    0.00000000000000E+00    0.00000000000000E+00
   -0.25000000000000E+01   -0.35000000000000E+01    0.25000000000000E+00    0.00000000000000E+00    0.00000000000000E+00    0.00000000000000E+00    0.00000000000000E+00
   -0.15000000000000E+01   -0.35000000000000E+01    0.25000000000000E+00    0.00000000000000E+00    0.00000000000000E+00    0.00000000000000E+00    0.00000000000000E+00
   -0.50000000000000E+00   -0.35000000000000E+01    0.25000000000000E+00    0.00000000000000E+00    0.00000000000000E+00    0.00000000000000E+00    0.00000000000000E+00
    0.50000000000000E+00   -0.35000000000000E+01    0.25000000000000E+00    0.00000000000000E+00    0.00000000000000E+00    0.00000000000000E+00    0.00000000000000E+00
    0.15000000000000E+01   -0.35000000000000E+01    0.25000000000000E+00    0.00000000000000E+00    0.00000000000000E+00    0.00000000000000E+00    0.00000000000000E+00
    0.25000000000000E+01   -0.35000000000000E+01    0.25000000000000E+00    0.00000000000000E+00    0.00000000000000E+00    0.00000000000000E+00    0.00000000000000E+00
    0.35000000000000E+01   -0.35000000000000E+01    0.25000000000000E+00    0.00000000000000E+00    0.00000000000000E+00    0.00000000000000E+00    0.00000000000000E+00
    0.45000000000000E+01   -0.35000000000000E+01    0.25000000000000E+00    0.00000000000000E+00    0.00000000000000E+00    0.00000000000000E+00    0.00000000000000E+00
    0.55000000000000E+01   -0.35000000000000E+01    0.25000000000000E+00    0.00000000000000E+00    0.00000000000000E+00    0.00000000000000E+00    0.00000000000000E+00
    0.65000000000000E+01   -0.35000000000000E+01    0.25000000000000E+00    0.00000000000000E+00    0.00000000000000E+00    0.00000000000000E+00    0.00000000000000E+00
    0.75000000000000E+01   -0.35000000000000E+01    0.25000000000000E+00    0.00000000000000E+00    0.00000000000000E+00    0.00000000000000E+00    0.00000000000000E+00
    0.85000000000000E+01   -0.35000000000000E+01    0.25000000000000E+00    0.00000000000000E+00    0.00000000000000E+00    0.00000000000000E+00    0.00000000000000E+00
    0.95000000000000E+01   -0.35000000000000E+01    0.25000000000000E+00    0.00000000000000E+00    0.00000000000000E+00    0.00000000000000E+00    0.00000000000000E+00
   -0.95000000000000E+01   -0.25000000000000E+01    0.25000000000000E+00    0.00000000000000E+00    0.00000000000000E+00    0.00000000000000E+00    0.00000000000000E+00
   -0.85000000000000E+01   -0.25000000000000E+01    0.25000000000000E+00    0.00000000000000E+00    0.00000000000000E+00    0.00000000000000E+00    0.00000000000000E+00
   -0.75000000000000E+01   -0.25000000000000E+01    0.25000000000000E+00    0.00000000000000E+00    0.00000000000000E+00    0.00000000000000E+00    0.00000000000000E+00
   -0.65000000000000E+01   -0.25000000000000E+01    0.25000000000000E+00    0.00000000000000E+00    0.00000000000000E+00    0.00000000000000E+00    0.00000000000000E+00
   -0.55000000000000E+01   -0.25000000000000E+01    0.25000000000000E+00    0.00000000000000E+00    0.00000000000000E+00    0.00000000000000E+00    0.00000000000000E+00
   -0.45000000000000E+01   -0.25000000000000E+01    0.25000000000000E+00    0.00000000000000E+00    0.00000000000000E+00    0.00000000000000E+00    0.00000000000000E+00
   -0.35000000000000E+01   -0.25000000000000E+01    0.25000000000000E+00    0.00000000000000E+00    0.00000000000000E+00    0.00000000000000E+00    0.00000000000000E+00
   -0.25000000000000E+01   -0.25000000000000E+01    0.25000000000000E+00    0.00000000000000E+00    0.00000000000000E+00    0.00000000000000E+00    0.00000000000000E+00
   -0.15000000000000E+01   -0.25000000000000E+01    0.25000000000000E+00    0.00000000000000E+00    0.00000000000000E+00    0.00000000000000E+00    0.00000000000000E+00
   -0.50000000000000E+00   -0.25000000000000E+01    0.25000000000000E+00    0.00000000000000E+00    0.00000000000000E+00    0.00000000000000E+00    0.00000000000000E+00
    0.50000000000000E+00   -0.25000000000000E+01    0.25000000000000E+00    0.00000000000000E+00    0.00000000000000E+00    0.00000000000000E+00    0.00000000000000E+00
    0.15000000000000E+01   -0.25000000000000E+01    0.25000000000000E+00    0.00000000000000E+00    0.00000000000000E+00    0.00000000000000E+00    0.00000000000000E+00
    0.25000000000000E+01   -0.25000000000000E+01    0.25000000000000E+00    0.00000000000000E+00    0.00000000000000E+00    0.00000000000000E+00    0.00000000000000E+00
    0.35000000000000E+01   -0.25000000000000E+01    0.25000000000000E+00    0.00000000000000E+00    0.00000000000000E+00    0.00000000000000E+00    0.00000000000000E+00
    0.45000000000000E+01   -0.25000000000000E+01    0.25000000000000E+00    0.00000000000000E+00    0.00000000000000E+00    0.00000000000000E+00    0.00000000000000E+00
    0.55000000000000E+01   -0.25000000000000E+01    0.25000000000000E+00    0.00000000000000E+00    0.00000000000000E+00    0.00000000000000E+00    0.00000000000000E+00
    0.65000000000000E+01   -0.25000000000000E+01    0.25000000000000E+00    0.00000000000000E+00    0.00000000000000E+00    0.00000000000000E+00    0.00000000000000E+00
    0.75000000000000E+01   -0.25000000000000E+01    0.25000000000000E+00    0.00000000000000E+00    0.00000000000000E+00    0.00000000000000E+00    0.00000000000000E+00
    0.85000000000000E+01   -0.25000000000000E+01    0.25000000000000E+00    0.00000000000000E+00    0.00000000000000E+00    0.00000000000000E+00    0.00000000000000E+00
    0.95000000000000E+01   -0.25000000000000E+01    0.25000000000000E+00    0.00000000000000E+00    0.00000000000000E+00    0.00000000000000E+00    0.00000000000000E+00
   -0.95000000000000E+01   -0.15000000000000E+01    0.25000000000000E+00    0.00000000000000E+00    0.00000000000000E+00    0.00000000000000E+00    0.00000000000000E+00
   -0.85000000000000E+01   -0.15000000000000E+01    0.25000000000000E+00    0.00000000000000E+00    0.00000000000000E+00    0.00000000000000E+00    0.00000000000000E+00
   -0.75000000000000E+01   -0.15000000000000E+01    0.25000000000000E+00    0.00000000000000E+00    0.00000000000000E+00    0.00000000000000E+00    0.00000000000000E+00
   -0.65000000000000E+01   -0.15000000000000E+01    0.25000000000000E+00    0.00000000000000E+00    0.00000000000000E+00    0.00000000000000E+00    0.00000000000000E+00
   -0.55000000000000E+01   -0.15000000000000E+01    0.25000000000000E+00    0.00000000000000E+00    0.00000000000000E+00    0.00000000000000E+00    0.00000000000000E+00
   -0.45000000000000E+01   -0.15000000000000E+01    0.25000000000000E+00    0.00000000000000E+00    0.00000000000000E+00    0.00000000000000E+00    0.00000000000000E+00
   -0.35000000000000E+01   -0.15000000000000E+01    0.25000000000000E+00    0.00000000000000E+00    0.00000000000000E+00    0.00000000000000E+00    0.00000000000000E+00
   -0.25000000000000E+01   -0.15000000000000E+01    0.25000000000000E+00    0.00000000000000E+00    0.00000000000000E+00    0.00000000000000E+00    0.00000000000000E+00
   -0.15000000000000E+01   -0.15000000000000E+01    0.25000000000000E+00    0.00000000000000E+00    0.00000000000000E+00    0.00000000000000E+00    0.00000000000000E+00
   -0.50000000000000E+00   -0.15000000000000E+01    0.25000000000000E+00    0.00000000000000E+00    0.00000000000000E+00    0.00000000000000E+00    0.00000000000000E+00
    0.50000000000000E+00   -0.15000000000000E+01    0.25000000000000E+00    0.00000000000000E+00    0.00000000000000E+00    0.00000000000000E+00    0.00000000000000E+00
    0.15000000000000E+01   -0.15000000000000E+01    0.25000000000000E+00    0.00000000000000E+00    0.00000000000000E+00    0.00000000000000E+00    0.00000000000000E+00
    0.25000000000000E+01   -0.15000000000000E+01    0.25000000000000E+00    0.00000000000000E+00    0.00000000000000E+00    0.00000000000000E+00    0.00000000000000E+00
    0.35000000000000E+01   -0.15000000000000E+01    0.25000000000000E+00    0.00000000000000E+00    0.00000000000000E+00    0.00000000000000E+00    0.00000000000000E+00
    0.45000000000000E+01   -0.15000000000000E+01    0.25000000000000E+00    0.00000000000000E+00    0.00000000000000E+00    0.00000000000000E+00    0.00000000000000E+00
    0.55000000000000E+01   -0.15000000000000E+01    0.25000000000000E+00    0.00000000000000E+00    0.00000000000000E+00    0.00000000000000E+00    0.00000000000000E+00